# vtk DataFile Version 3.0
ParaView Output
ASCII
DATASET STRUCTURED_GRID
DIMENSIONS 20 10 30
POINTS 6000 double
1 0 0
0.986361 0.164595 0
0.945817 0.324699 0
0.879474 0.475947 0
0.789141 0.614213 0
0.677282 0.735724 0
0.546948 0.837166 0
0.401695 0.915773 0
0.245485 0.9694 0
0.0825793 0.996584 0
-0.0825793 0.996584 0
-0.245485 0.9694 0
-0.401695 0.915773 0
-0.546948 0.837166 0
-0.677282 0.735724 0
-0.789141 0.614213 0
-0.879474 0.475947 0
-0.945817 0.324699 0
-0.986361 0.164595 0
-1 1.22465e-16 0
0.944444 0 0
0.905958 0.143125 0
0.854784 0.282346 0
0.78684 0.413866 0
0.701384 0.534096 0
0.599319 0.639757 0
0.482563 0.727968 0
0.353725 0.796322 0
0.215917 0.842953 0
0.0725929 0.866592 0
-0.0725929 0.866592 0
-0.215917 0.842953 0
-0.353725 0.796322 0
-0.482563 0.727968 0
-0.599319 0.639757 0
-0.701383 0.534096 0
-0.78684 0.413866 0
-0.854784 0.282346 0
-0.905958 0.143125 0
-0.944444 1.15661e-16 0
0.888889 0 0
0.838243 0.12556 0
0.780519 0.247695 0
0.711721 0.363073 0
0.630234 0.468548 0
0.53605 0.561242 0
0.430258 0.638627 0
0.314725 0.698591 0
0.191866 0.7395 0
0.0644677 0.760237 0
-0.0644675 0.760237 0
-0.191866 0.7395 0
-0.314725 0.698591 0
-0.430258 0.638627 0
-0.53605 0.561242 0
-0.630234 0.468548 0
-0.711721 0.363073 0
-0.780519 0.247695 0
-0.838243 0.12556 0
-0.888889 1.08857e-16 0
0.833333 0 0
0.777606 0.111419 0
0.717329 0.2198 0
0.649289 0.322184 0
0.571781 0.415781 0
0.484387 0.498035 0
0.387695 0.566705 0
0.283051 0.619917 0
0.172354 0.656219 0
0.0578791 0.67462 0
-0.0578791 0.67462 0
-0.172354 0.656219 0
-0.283051 0.619917 0
-0.387695 0.566705 0
-0.484387 0.498035 0
-0.571781 0.415781 0
-0.649289 0.322184 0
-0.717329 0.2198 0
-0.777606 0.111419 0
-0.833333 1.02054e-16 0
0.777778 0 0
0.721517 0.100318 0
0.661903 0.1979 0
0.596326 0.290084 0
0.523214 0.374355 0
0.442023 0.448414 0
0.353084 0.510242 0
0.25743 0.558152 0
0.15662 0.590837 0
0.0525738 0.607405 0
-0.0525738 0.607405 0
-0.15662 0.590837 0
-0.25743 0.558152 0
-0.353084 0.510242 0
-0.442023 0.448414 0
-0.523214 0.374355 0
-0.596326 0.290084 0
-0.661903 0.1979 0
-0.721517 0.100318 0
-0.777778 9.52503e-17 0
0.722222 0 0
0.668782 0.0919535 0
0.612439 0.181399 0
0.550896 0.265896 0
0.482728 0.34314 0
0.407406 0.411025 0
0.325187 0.467697 0
0.236965 0.511612 0
0.144121 0.541572 0
0.0483705 0.556759 0
-0.0483705 0.556759 0
-0.144121 0.541572 0
-0.236965 0.511612 0
-0.325187 0.467697 0
-0.407406 0.411025 0
-0.482728 0.34314 0
-0.550896 0.265896 0
-0.612439 0.181399 0
-0.668782 0.0919535 0
-0.722222 8.84467e-17 0
0.666667 0 0
0.618949 0.086097 0
0.568177 0.169846 0
0.51209 0.248961 0
0.449396 0.321286 0
0.379687 0.384847 0
0.303293 0.43791 0
0.221124 0.479028 0
0.134528 0.507079 0
0.0451576 0.521299 0
-0.0451576 0.521299 0
-0.134528 0.507079 0
-0.221124 0.479028 0
-0.303293 0.43791 0
-0.379687 0.384847 0
-0.449396 0.321286 0
-0.51209 0.248961 0
-0.568177 0.169846 0
-0.618949 0.086097 0
-0.666667 8.16431e-17 0
0.611111 0 0
0.572171 0.0825891 0
0.529229 0.162925 0
0.479892 0.238817 0
0.423079 0.308195 0
0.358654 0.369166 0
0.287173 0.420067 0
0.209709 0.45951 0
0.12771 0.486419 0
0.0428893 0.500059 0
-0.0428893 0.500059 0
-0.12771 0.486419 0
-0.209709 0.45951 0
-0.287173 0.420067 0
-0.358654 0.369166 0
-0.423079 0.308195 0
-0.479892 0.238817 0
-0.529229 0.162925 0
-0.572171 0.0825891 0
-0.611111 7.48395e-17 0
0.555556 0 0
0.529396 0.0813339 0
0.496676 0.160449 0
0.45517 0.235188 0
0.404374 0.303511 0
0.344677 0.363556 0
0.277038 0.413683 0
0.202827 0.452526 0
0.123715 0.479026 0
0.0415787 0.492459 0
-0.0415788 0.492459 0
-0.123715 0.479026 0
-0.202827 0.452526 0
-0.277038 0.413683 0
-0.344677 0.363556 0
-0.404374 0.303511 0
-0.45517 0.235188 0
-0.496676 0.160449 0
-0.529396 0.0813339 0
-0.555556 6.80359e-17 0
0.5 0 0
0.493181 0.0822973 0
0.472909 0.16235 0
0.439737 0.237974 0
0.39457 0.307106 0
0.338641 0.367862 0
0.273474 0.418583 0
0.200848 0.457887 0
0.122743 0.4847 0
0.0412897 0.498292 0
-0.0412897 0.498292 0
-0.122743 0.4847 0
-0.200848 0.457887 0
-0.273474 0.418583 0
-0.338641 0.367862 0
-0.39457 0.307106 0
-0.439737 0.237974 0
-0.472909 0.16235 0
-0.493181 0.0822973 0
-0.5 6.12323e-17 0
1 0 0.172414
0.986361 0.164595 0.172414
0.945817 0.324699 0.172414
0.879474 0.475947 0.172414
0.789141 0.614213 0.172414
0.677282 0.735724 0.172414
0.546948 0.837166 0.172414
0.401695 0.915773 0.172414
0.245485 0.9694 0.172414
0.0825793 0.996584 0.172414
-0.0825793 0.996584 0.172414
-0.245485 0.9694 0.172414
-0.401695 0.915773 0.172414
-0.546948 0.837166 0.172414
-0.677282 0.735724 0.172414
-0.789141 0.614213 0.172414
-0.879474 0.475947 0.172414
-0.945817 0.324699 0.172414
-0.986361 0.164595 0.172414
-1 1.22465e-16 0.172414
0.944444 0 0.172414
0.929527 0.154582 0.172414
0.890468 0.304947 0.172414
0.827501 0.446994 0.172414
0.7422 0.576848 0.172414
0.636816 0.690968 0.172414
0.514171 0.786239 0.172414
0.377575 0.860064 0.172414
0.230727 0.910429 0.172414
0.077612 0.935959 0.172414
-0.077612 0.935959 0.172414
-0.230727 0.910429 0.172414
-0.377575 0.860064 0.172414
-0.514171 0.786239 0.172414
-0.636816 0.690968 0.172414
-0.7422 0.576848 0.172414
-0.827501 0.446994 0.172414
-0.890468 0.304947 0.172414
-0.929528 0.154582 0.172414
-0.944444 1.15661e-16 0.172414
0.888889 0 0.172414
0.873159 0.144719 0.172414
0.835696 0.28549 0.172414
0.776137 0.418474 0.172414
0.695847 0.540044 0.172414
0.596877 0.646882 0.172414
0.481832 0.736075 0.172414
0.353783 0.805189 0.172414
0.216172 0.852341 0.172414
0.0727132 0.876242 0.172414
-0.0727131 0.876242 0.172414
-0.216172 0.852341 0.172414
-0.353783 0.805189 0.172414
-0.481832 0.736075 0.172414
-0.596876 0.646882 0.172414
-0.695847 0.540044 0.172414
-0.776137 0.418475 0.172414
-0.835696 0.285491 0.172414
-0.87316 0.144719 0.172414
-0.888889 1.08857e-16 0.172414
0.833333 0 0.172414
0.817337 0.135075 0.172414
0.781664 0.266465 0.172414
0.725585 0.390587 0.172414
0.650295 0.504055 0.172414
0.557668 0.603773 0.172414
0.450106 0.687022 0.172414
0.330451 0.751531 0.172414
0.201902 0.79554 0.172414
0.0679112 0.817849 0.172414
-0.067911 0.817849 0.172414
-0.201902 0.79554 0.172414
-0.330451 0.751531 0.172414
-0.450106 0.687022 0.172414
-0.557668 0.603773 0.172414
-0.650295 0.504055 0.172414
-0.725585 0.390587 0.172414
-0.781664 0.266465 0.172414
-0.817337 0.135075 0.172414
-0.833333 1.02054e-16 0.172414
0.777778 0 0.172414
0.762082 0.125688 0.172414
0.728435 0.247947 0.172414
0.675935 0.363443 0.172414
0.605648 0.469025 0.172414
0.519291 0.561813 0.172414
0.419081 0.639276 0.172414
0.30765 0.699302 0.172414
0.187962 0.740253 0.172414
0.0632209 0.761011 0.172414
-0.0632207 0.761011 0.172414
-0.187962 0.740253 0.172414
-0.30765 0.699302 0.172414
-0.419081 0.639277 0.172414
-0.519291 0.561813 0.172414
-0.605648 0.469025 0.172414
-0.675935 0.363443 0.172414
-0.728435 0.247947 0.172414
-0.762082 0.125688 0.172414
-0.777778 9.52503e-17 0.172414
0.722222 0 0.172414
0.707383 0.11657 0.172414
0.67601 0.22996 0.172414
0.6272 0.337077 0.172414
0.561925 0.435 0.172414
0.481769 0.521057 0.172414
0.388781 0.592901 0.172414
0.285397 0.648573 0.172414
0.174363 0.686552 0.172414
0.0586462 0.705805 0.172414
-0.0586461 0.705805 0.172414
-0.174362 0.686553 0.172414
-0.285397 0.648573 0.172414
-0.388781 0.592901 0.172414
-0.481769 0.521057 0.172414
-0.561925 0.435 0.172414
-0.627201 0.337077 0.172414
-0.67601 0.22996 0.172414
-0.707383 0.11657 0.172414
-0.722222 8.84467e-17 0.172414
0.666667 0 0.172414
0.653205 0.107712 0.172414
0.624347 0.212485 0.172414
0.579336 0.311463 0.172414
0.519083 0.401944 0.172414
0.445062 0.481462 0.172414
0.359172 0.547847 0.172414
0.263668 0.599287 0.172414
0.16109 0.634381 0.172414
0.0541823 0.652171 0.172414
-0.0541823 0.652171 0.172414
-0.16109 0.634381 0.172414
-0.263668 0.599287 0.172414
-0.359172 0.547847 0.172414
-0.445062 0.481462 0.172414
-0.519083 0.401944 0.172414
-0.579336 0.311463 0.172414
-0.624347 0.212485 0.172414
-0.653205 0.107712 0.172414
-0.666667 8.16431e-17 0.172414
0.611111 0 0.172414
0.599499 0.099083 0.172414
0.573366 0.195463 0.172414
0.532246 0.286512 0.172414
0.477024 0.369745 0.172414
0.40908 0.442893 0.172414
0.330177 0.503959 0.172414
0.242404 0.551279 0.172414
0.148106 0.583562 0.172414
0.0498166 0.599926 0.172414
-0.0498165 0.599926 0.172414
-0.148106 0.583562 0.172414
-0.242404 0.551279 0.172414
-0.330177 0.503959 0.172414
-0.40908 0.442893 0.172414
-0.477024 0.369745 0.172414
-0.532246 0.286512 0.172414
-0.573366 0.195463 0.172414
-0.599499 0.099083 0.172414
-0.611111 7.48395e-17 0.172414
0.555556 0 0.172414
0.546191 0.0906345 0.172414
0.522945 0.178797 0.172414
0.485783 0.262082 0.172414
0.435593 0.338218 0.172414
0.373674 0.405128 0.172414
0.30167 0.460988 0.172414
0.221509 0.504273 0.172414
0.135352 0.533803 0.172414
0.0455285 0.548772 0.172414
-0.0455285 0.548772 0.172414
-0.135352 0.533803 0.172414
-0.221509 0.504273 0.172414
-0.30167 0.460988 0.172414
-0.373674 0.405128 0.172414
-0.435593 0.338218 0.172414
-0.485783 0.262082 0.172414
-0.522945 0.178797 0.172414
-0.546191 0.0906345 0.172414
-0.555556 6.80359e-17 0.172414
0.5 0 0.172414
0.493181 0.0822973 0.172414
0.472909 0.16235 0.172414
0.439737 0.237974 0.172414
0.39457 0.307106 0.172414
0.338641 0.367862 0.172414
0.273474 0.418583 0.172414
0.200848 0.457887 0.172414
0.122743 0.4847 0.172414
0.0412897 0.498292 0.172414
-0.0412897 0.498292 0.172414
-0.122743 0.4847 0.172414
-0.200848 0.457887 0.172414
-0.273474 0.418583 0.172414
-0.338641 0.367862 0.172414
-0.39457 0.307106 0.172414
-0.439737 0.237974 0.172414
-0.472909 0.16235 0.172414
-0.493181 0.0822973 0.172414
-0.5 6.12323e-17 0.172414
1 0 0.344828
0.986361 0.164595 0.344828
0.945817 0.324699 0.344828
0.879474 0.475947 0.344828
0.789141 0.614213 0.344828
0.677282 0.735724 0.344828
0.546948 0.837166 0.344828
0.401695 0.915773 0.344828
0.245485 0.9694 0.344828
0.0825793 0.996584 0.344828
-0.0825793 0.996584 0.344828
-0.245485 0.9694 0.344828
-0.401695 0.915773 0.344828
-0.546948 0.837166 0.344828
-0.677282 0.735724 0.344828
-0.789141 0.614213 0.344828
-0.879474 0.475947 0.344828
[...]
POINT_DATA 6000
SCALARS Temperature double
LOOKUP_TABLE default
1000
1000
1000
1000
1000
1000
1000
1000
1000
1000
1000
1000
1000
1000
1000
1000
1000
1000
1000
1000
1000
1000
1000
1000
1000
1000
1000
1000
1000
1000
1000
1000
1000
1000
1000
1000
1000
1000
1000
1000
1000
1000
1000
1000
1000
1000
1000
1000
1000
1000
1000
1000
1000
1000
1000
1000
1000
1000
1000
1000
1000
1000
1000
1000
1000
1000
1000
1000
1000
1000
1000
1000
1000
1000
1000
1000
1000
1000
1000
1000
1000
1000
1000
1000
1000
1000
1000
1000
1000
1000
1000
1000
1000
1000
1000
1000
1000
1000
1000
1000
1000
1000
1000
1000
1000
1000
1000
1000
1000
1000
1000
1000
1000
1000
1000
1000
1000
1000
1000
1000
1000
1000
1000
1000
1000
1000
1000
1000
1000
1000
1000
1000
1000
1000
1000
1000
1000
1000
1000
1000
1000
1000
1000
1000
1000
1000
1000
1000
1000
1000
1000
1000
1000
1000
1000
1000
1000
1000
1000
1000
1000
1000
1000
1000
1000
1000
1000
1000
1000
1000
1000
1000
1000
1000
1000
1000
1000
1000
1000
1000
1000
1000
1000
1000
1000
1000
1000
1000
1000
1000
1000
1000
1000
1000
1000
1000
1000
1000
1000
1000
1000
999.995
999.981
999.959
999.93
999.896
999.86
999.826
999.801
999.787
999.787
999.801
999.826
999.86
999.896
999.93
999.959
999.981
999.995
1000
1000
999.995
999.984
999.965
999.939
999.91
999.879
999.85
999.828
999.815
999.815
999.828
999.85
999.879
999.91
999.939
999.965
999.984
999.995
1000
1000
999.996
999.986
999.97
999.949
999.923
999.897
999.873
999.854
999.844
999.844
999.854
999.873
999.897
999.923
999.949
999.97
999.986
999.996
1000
1000
999.997
999.988
999.975
999.958
999.937
999.915
999.896
999.88
999.872
999.872
999.88
999.896
999.915
999.937
999.958
999.975
999.988
999.997
1000
1000
999.997
999.991
999.98
999.966
999.95
999.933
999.918
999.905
999.899
999.899
999.905
999.918
999.933
999.95
999.966
999.98
999.991
999.997
1000
1000
999.998
999.993
999.985
999.975
999.963
999.95
999.939
999.93
999.925
999.925
999.93
999.939
999.95
999.963
999.975
999.985
999.993
999.998
1000
1000
999.999
999.995
999.99
999.983
999.976
999.967
999.96
999.954
999.95
999.95
999.954
999.96
999.967
999.976
999.983
999.99
999.995
999.999
1000
1000
999.999
999.998
999.995
999.992
999.988
999.983
999.98
999.977
999.975
999.975
999.977
999.98
999.983
999.988
999.992
999.995
999.998
999.999
1000
1000
1000
1000
1000
1000
999.999
999.999
999.999
999.999
999.999
999.999
999.999
999.999
999.999
999.999
1000
1000
1000
1000
1000
1000
1000
1000
1000
1000.01
1000.01
1000.01
1000.02
1000.02
1000.02
1000.02
1000.02
1000.02
1000.01
1000.01
1000.01
1000
1000
1000
1000
1000
999.99
999.962
999.916
999.855
999.784
999.709
999.64
999.587
999.558
999.558
999.587
999.64
999.709
999.784
999.855
999.916
999.962
999.99
1000
1000
999.991
999.967
999.927
999.874
999.812
999.747
999.687
999.641
999.616
999.616
999.641
999.687
999.747
999.812
999.874
999.927
999.967
999.991
1000
1000
999.992
999.971
999.937
999.892
999.84
999.785
999.734
999.695
999.673
999.673
999.695
999.734
999.785
999.84
999.892
999.937
999.971
999.992
1000
1000
999.993
999.976
999.948
999.911
999.867
999.822
999.78
999.748
999.73
999.73
999.748
999.78
999.822
999.867
999.911
999.948
999.976
999.993
1000
1000
999.995
999.981
999.959
999.929
999.894
999.858
999.825
999.8
999.786
999.786
999.8
999.825
999.858
999.894
999.929
999.959
999.981
999.995
1000
1000
999.996
999.986
999.969
999.947
999.921
999.894
999.87
999.851
999.841
999.841
999.851
999.87
999.894
999.921
999.947
999.969
999.986
999.996
1000
1000
999.997
999.99
999.979
999.965
999.947
999.93
999.913
999.901
999.894
999.894
999.901
999.913
999.93
999.947
999.965
999.979
999.99
999.997
1000
1000
999.999
999.995
999.989
999.982
999.973
999.964
999.956
999.95
999.946
999.946
999.95
999.956
999.964
999.973
999.982
999.989
999.995
999.999
1000
1000
1000
1000
1000
999.999
999.999
999.998
999.998
999.998
999.998
999.998
999.998
999.998
999.998
999.999
999.999
1000
1000
1000
1000
1000
1000
1000
1000.01
1000.02
1000.02
1000.03
1000.04
1000.05
1000.05
1000.05
1000.05
1000.04
1000.03
1000.02
1000.02
1000.01
1000
1000
1000
1000
999.984
999.939
999.866
999.768
999.654
999.535
999.424
999.339
999.292
999.292
999.339
999.424
999.535
999.654
999.768
999.866
999.939
999.984
1000
1000
999.986
999.947
999.883
999.798
999.699
999.595
999.499
999.425
999.384
999.384
999.425
999.499
999.595
999.699
999.798
999.883
999.947
999.986
1000
1000
999.988
999.954
999.9
999.828
999.743
999.655
999.573
999.51
999.476
999.476
999.51
999.573
999.655
999.743
999.828
999.9
999.954
999.988
1000
1000
999.99
999.962
999.917
999.857
999.787
999.714
999.647
999.595
999.567
999.567
999.595
999.647
999.714
999.787
999.857
999.917
999.962
999.99
1000
1000
999.992
999.969
999.934
999.886
999.83
999.772
999.719
999.678
999.656
999.656
999.678
999.719
999.772
999.83
999.886
999.934
999.969
999.992
1000
1000
999.994
999.977
999.95
999.915
999.873
999.83
999.79
999.76
999.743
999.743
999.76
999.79
999.83
999.873
999.915
999.95
999.977
999.994
1000
1000
999.996
999.985
999.967
999.943
999.915
999.886
999.86
999.84
999.829
999.829
999.84
999.86
999.886
999.915
999.943
999.967
999.985
999.996
1000
1000
999.998
999.992
999.983
999.971
999.957
999.942
999.929
999.919
999.913
999.913
999.919
999.929
999.942
999.957
999.971
999.983
999.992
999.998
1000
1000
1000
1000
999.999
999.999
999.998
999.997
999.997
999.996
999.996
999.996
999.996
999.997
999.997
999.998
999.999
999.999
1000
1000
1000
1000
1000
1000.01
1000.02
1000.03
1000.04
1000.05
1000.06
1000.07
1000.08
1000.08
1000.07
1000.06
1000.05
1000.04
1000.03
1000.02
1000.01
1000
1000
1000
999.977
999.911
999.804
999.663
999.496
999.322
999.161
999.037
998.969
998.969
999.037
999.161
999.322
999.496
999.663
999.804
999.911
999.977
1000
1000
999.979
999.922
999.829
999.706
999.561
999.409
999.269
999.161
999.102
999.102
999.161
999.27
999.409
999.561
999.706
999.829
999.922
999.979
1000
1000
999.982
999.933
999.854
999.749
999.625
999.496
999.377
999.286
999.236
999.236
999.286
999.377
999.496
999.625
999.749
999.854
999.933
999.982
1000
1000
999.985
999.944
999.879
999.791
999.689
999.583
999.484
999.409
999.368
999.368
999.409
999.484
999.583
999.689
999.791
999.879
999.944
999.985
1000
1000
999.988
999.955
999.903
999.833
999.752
999.668
999.59
999.53
999.497
999.497
999.53
999.59
999.668
999.752
999.833
999.903
999.955
999.988
1000
1000
999.991
999.966
999.927
999.875
999.815
999.751
999.694
999.649
999.625
999.625
999.649
999.694
999.751
999.815
999.875
999.927
999.966
999.991
1000
1000
999.994
999.977
999.951
999.916
999.876
999.834
999.795
999.766
999.75
999.75
999.766
999.795
999.834
999.876
999.916
999.951
999.977
999.994
1000
1000
999.997
999.988
999.975
999.957
999.937
999.915
999.895
999.88
999.872
999.872
999.88
999.895
999.915
999.937
999.957
999.975
999.988
999.997
1000
1000
1000
999.999
999.999
999.998
999.997
999.995
999.994
999.993
999.993
999.993
999.993
999.994
999.995
999.997
999.998
999.999
999.999
1000
1000
1000
1000
1000.01
1000.02
1000.04
1000.06
1000.08
1000.09
1000.11
1000.11
1000.11
1000.11
1000.09
1000.08
1000.06
1000.04
1000.02
1000.01
1000
1000
1000
999.968
999.876
999.727
999.529
999.297
999.054
998.829
998.655
998.56
998.56
998.655
998.829
999.054
999.297
999.529
999.727
999.876
999.968
1000
1000
999.971
999.891
999.762
999.589
999.387
999.175
998.98
998.829
998.747
998.747
998.829
998.98
999.175
999.387
999.589
999.762
999.891
999.971
1000
1000
999.975
999.907
999.796
999.649
999.477
999.297
999.131
999.002
998.932
998.932
999.002
999.131
999.297
999.477
999.649
999.796
999.907
999.975
1000
1000
999.979
999.922
999.83
999.708
999.566
999.417
999.28
999.174
999.116
999.116
999.174
999.28
999.417
999.566
999.708
999.83
999.922
999.979
1000
1000
999.983
999.938
999.864
999.767
999.654
999.535
999.427
999.343
999.297
999.297
999.343
999.427
999.535
999.654
999.767
999.864
999.938
999.983
1000
1000
999.987
999.953
999.898
999.825
999.741
999.652
999.571
999.509
999.475
999.475
999.509
999.571
999.652
999.741
999.825
999.898
999.953
999.987
1000
1000
999.991
999.968
999.932
999.883
999.826
999.767
999.713
999.672
999.649
999.649
999.672
999.713
999.767
999.826
999.883
999.932
999.968
999.991
1000
1000
999.995
999.984
999.965
999.94
999.911
999.88
999.853
999.831
999.82
999.82
999.831
999.853
999.88
999.911
999.94
999.965
999.984
999.995
1000
1000
1000
999.999
999.998
999.996
999.994
999.992
999.991
999.989
999.988
999.988
999.989
999.991
999.992
999.994
999.996
999.998
999.999
1000
1000
1000
1000
1000.01
1000.03
1000.05
1000.08
1000.1
1000.13
1000.15
1000.16
1000.16
1000.15
1000.13
1000.1
1000.08
1000.05
1000.03
1000.01
1000
1000
1000
999.956
999.83
999.627
999.357
999.04
998.708
998.401
998.163
998.034
998.034
998.163
998.401
998.708
999.04
999.357
999.627
999.83
999.956
1000
1000
999.961
999.852
999.674
999.439
999.163
998.874
998.607
998.401
998.288
998.288
998.401
998.607
998.874
999.163
999.439
999.674
999.852
999.961
1000
1000
999.966
999.873
999.721
999.52
999.285
999.039
998.812
998.637
998.541
998.541
998.637
998.812
999.039
999.285
999.52
999.721
999.873
999.966
1000
1000
999.971
999.894
999.768
999.601
999.406
999.203
999.015
998.871
998.792
998.792
998.871
999.015
999.203
999.406
999.601
999.768
999.894
999.971
1000
1000
999.976
999.915
999.815
999.682
999.526
999.364
999.216
999.101
999.039
999.039
999.101
999.216
999.364
999.526
999.682
999.815
999.915
999.976
1000
1000
999.982
999.936
999.861
999.761
999.645
999.524
999.413
999.327
999.281
999.281
999.327
999.413
999.524
999.645
999.761
999.861
999.936
999.982
1000
1000
999.988
999.957
999.906
999.839
999.761
999.681
999.606
999.549
999.518
999.518
999.549
999.606
999.681
999.761
999.839
999.906
999.957
999.988
1000
1000
999.994
999.978
999.951
999.917
999.877
999.835
999.797
999.767
999.751
999.751
999.767
999.797
999.835
999.877
999.917
999.951
999.978
999.994
1000
1000
1000
999.998
999.996
999.994
999.991
999.987
999.985
999.982
999.981
999.981
999.982
999.985
999.987
999.991
999.994
999.996
999.998
1000
1000
1000
1000.01
1000.02
1000.04
1000.07
1000.1
1000.14
1000.17
1000.2
1000.21
1000.21
1000.2
1000.17
1000.14
1000.1
1000.07
1000.04
1000.02
1000.01
1000
1000
999.94
999.771
999.497
999.132
998.704
998.256
997.841
997.521
997.346
997.346
997.521
997.841
998.256
998.704
999.132
999.497
999.771
999.94
1000
1000
999.947
999.8
999.56
999.242
998.87
998.479
998.119
997.841
997.689
997.689
997.841
998.119
998.479
998.87
999.242
999.56
999.8
999.947
1000
1000
999.954
999.828
999.624
999.352
999.034
998.702
998.396
998.159
998.03
998.03
998.159
998.396
998.702
999.034
999.352
999.624
999.828
999.954
1000
1000
999.961
999.856
999.687
999.461
999.198
998.923
998.669
998.474
998.367
998.367
998.474
998.669
998.923
999.198
999.461
999.687
999.856
999.961
1000
1000
999.968
999.885
999.749
999.569
999.359
999.14
998.939
998.784
998.7
998.7
998.784
998.939
999.14
999.359
999.569
999.749
999.885
999.968
1000
1000
999.976
999.913
999.811
999.676
999.519
999.355
999.205
999.089
999.026
999.026
999.089
999.205
999.355
999.519
999.676
999.811
999.913
999.976
1000
1000
999.984
999.941
999.873
999.782
999.676
999.566
999.465
999.388
999.346
999.346
999.388
999.465
999.566
999.676
999.782
999.873
999.941
999.984
1000
1000
999.991
999.969
999.934
999.886
999.831
999.774
999.722
999.682
999.66
999.66
999.682
999.722
999.774
999.831
999.886
999.934
999.969
999.991
1000
1000
999.999
999.997
999.994
999.99
999.985
999.98
999.975
999.971
999.969
999.969
999.971
999.975
999.98
999.985
999.99
999.994
999.997
999.999
1000
1000
1000.01
1000.03
1000.05
1000.09
1000.14
1000.18
1000.23
1000.26
1000.28
1000.28
1000.26
1000.23
1000.18
1000.14
1000.09
1000.05
1000.03
1000.01
1000
1000
999.92
999.693
999.325
998.836
998.262
997.661
997.106
996.676
996.441
996.441
996.676
997.106
997.661
998.262
998.836
999.325
999.693
999.92
1000
1000
999.929
999.731
999.41
998.984
998.484
997.96
997.477
997.104
996.9
996.9
997.104
997.477
997.96
998.484
998.984
999.41
999.731
999.929
1000
1000
999.938
999.769
999.495
999.131
998.704
998.258
997.847
997.529
997.356
997.356
997.529
997.847
998.258
998.704
999.131
999.495
999.769
999.938
1000
1000
999.947
999.807
999.579
999.277
998.923
998.553
998.213
997.95
997.807
997.807
997.95
998.213
998.553
998.923
999.277
999.579
999.807
999.947
1000
1000
999.957
999.845
999.663
999.421
999.139
998.844
998.574
998.365
998.252
998.252
998.365
998.574
998.844
999.139
999.421
999.663
999.845
999.957
1000
1000
999.967
999.883
999.746
999.564
999.352
999.131
998.929
998.773
998.688
998.688
998.773
998.929
999.131
999.352
999.564
999.746
999.883
999.967
1000
1000
999.978
999.921
999.828
999.705
999.562
999.414
999.278
999.173
999.116
999.116
999.173
999.278
999.414
999.562
999.705
999.828
999.921
999.978
1000
1000
999.988
999.958
999.909
999.845
999.77
999.692
999.621
999.566
999.536
999.536
999.566
999.621
999.692
999.77
999.845
999.909
999.958
999.988
1000
1000
999.999
999.996
999.99
999.984
999.976
999.967
999.959
999.953
999.95
999.95
999.953
999.959
999.967
999.976
999.984
999.99
999.996
999.999
1000
1000
1000.01
1000.03
1000.07
1000.12
1000.18
1000.24
1000.3
1000.34
1000.36
1000.36
1000.34
1000.3
1000.24
1000.18
1000.12
1000.07
1000.03
1000.01
1000
1000
999.893
999.59
999.099
998.445
997.678
996.875
996.133
995.559
995.245
995.245
995.559
996.133
996.875
997.678
998.445
999.099
999.59
999.893
1000
1000
999.905
999.641
999.212
998.642
997.973
997.273
996.627
996.128
995.856
995.856
996.128
996.627
997.273
997.973
998.642
999.212
999.641
999.905
1000
1000
999.917
999.692
999.325
998.837
998.267
997.67
997.12
996.695
996.463
996.463
996.695
997.12
997.67
998.267
998.837
999.325
999.692
999.917
1000
1000
999.93
999.742
999.437
999.032
998.558
998.063
997.607
997.256
997.064
997.064
997.256
997.607
998.063
998.558
999.032
999.437
999.742
999.93
1000
1000
999.943
999.792
999.548
999.224
998.846
998.451
998.088
997.809
997.657
997.657
997.809
998.088
998.451
998.846
999.224
999.548
999.792
999.943
1000
1000
999.956
999.843
999.659
999.414
999.13
998.833
998.561
998.352
998.238
998.238
998.352
998.561
998.833
999.13
999.414
999.659
999.843
999.956
1000
1000
999.97
999.893
999.768
999.603
999.41
999.21
999.026
998.885
998.808
998.808
998.885
999.026
999.21
999.41
999.603
999.768
999.893
999.97
1000
1000
999.984
999.943
999.877
999.789
999.686
999.58
999.483
999.408
999.367
999.367
999.408
999.483
999.58
999.686
999.789
999.877
999.943
999.984
1000
1000
999.998
999.993
999.985
999.973
999.96
999.947
999.934
999.924
999.919
999.919
999.924
999.934
999.947
999.96
999.973
999.985
999.993
999.998
1000
1000
1000.01
1000.04
1000.09
1000.16
1000.23
1000.31
1000.38
1000.44
1000.47
1000.47
1000.44
1000.38
1000.31
1000.23
1000.16
1000.09
1000.04
1000.01
1000
1000
999.858
999.453
998.798
997.927
996.904
995.833
994.844
994.079
993.661
993.661
994.079
994.844
995.833
996.904
997.927
998.798
999.453
999.858
1000
1000
999.874
999.521
998.949
998.188
997.296
996.362
995.501
994.835
994.471
994.471
994.835
995.501
996.362
997.296
998.188
998.949
999.521
999.874
1000
1000
999.89
999.588
999.098
998.448
997.686
996.889
996.154
995.588
995.278
995.278
995.588
996.154
996.889
997.686
998.448
999.098
999.588
999.89
1000
1000
999.906
999.655
999.247
998.706
998.072
997.411
996.802
996.333
996.076
996.076
996.333
996.802
997.411
998.072
998.706
999.247
999.655
999.906
1000
1000
999.923
999.722
999.395
998.961
998.455
997.926
997.441
997.067
996.863
996.863
997.067
997.441
997.926
998.455
998.961
999.395
999.722
999.923
1000
1000
999.941
999.789
999.542
999.214
998.832
998.434
998.069
997.788
997.635
997.635
997.788
998.069
998.434
998.832
999.214
999.542
999.789
999.941
1000
1000
999.96
999.856
999.687
999.464
999.204
998.934
998.687
998.496
998.392
998.392
998.496
998.687
998.934
999.204
999.464
999.687
999.856
999.96
1000
1000
999.978
999.922
999.832
999.712
999.572
999.427
999.294
999.191
999.136
999.136
999.191
999.294
999.427
999.572
999.712
999.832
999.922
999.978
1000
1000
999.997
999.989
999.975
999.957
999.936
999.913
999.893
999.877
999.868
999.868
999.877
999.893
999.913
999.936
999.957
999.975
999.989
999.997
1000
1000
1000.02
1000.05
1000.12
1000.2
1000.3
1000.4
1000.49
1000.56
1000.6
1000.6
1000.56
1000.49
1000.4
1000.3
1000.2
1000.12
1000.05
1000.02
1000
1000
999.811
999.272
998.399
997.239
995.878
994.451
993.133
992.115
991.558
991.558
992.115
993.133
994.451
995.878
997.239
998.399
999.272
999.811
1000
1000
999.832
999.362
998.599
997.585
996.397
995.152
994.004
993.117
992.632
992.632
993.117
994.004
995.152
996.397
997.585
998.599
999.362
999.832
1000
1000
999.853
999.451
998.797
997.929
996.913
995.85
994.871
994.114
993.701
993.701
994.114
994.871
995.85
996.913
997.929
998.797
999.451
999.853
1000
1000
999.874
999.54
998.995
998.271
997.426
996.542
995.729
995.102
994.76
994.76
995.102
995.729
996.542
997.426
998.271
998.995
999.54
999.874
1000
1000
999.897
999.628
999.191
998.61
997.932
997.225
996.576
996.075
995.802
995.802
996.075
996.576
997.225
997.932
998.61
999.191
999.628
999.897
1000
1000
999.921
999.717
999.385
998.946
998.433
997.899
997.409
997.032
996.826
996.826
997.032
997.409
997.899
998.433
998.946
999.385
999.717
999.921
1000
1000
999.945
999.805
999.578
999.277
998.926
998.561
998.227
997.97
997.83
997.83
997.97
998.227
998.561
998.926
999.277
999.578
999.805
999.945
1000
1000
999.97
999.894
999.769
999.605
999.413
999.214
999.032
998.891
998.815
998.815
998.891
999.032
999.214
999.413
999.605
999.769
999.894
999.97
1000
1000
999.995
999.981
999.959
999.93
999.896
999.86
999.827
999.801
999.787
999.787
999.801
999.827
999.86
999.896
999.93
999.959
999.981
999.995
1000
1000
1000.02
1000.07
1000.15
1000.25
1000.38
1000.5
1000.62
1000.71
1000.76
1000.76
1000.71
1000.62
1000.5
1000.38
1000.25
1000.15
1000.07
1000.02
1000
1000
999.748
999.031
997.87
996.326
994.514
992.616
990.863
989.508
988.767
988.767
989.508
990.863
992.616
994.514
996.326
997.87
999.031
999.748
1000
1000
999.776
999.15
998.134
996.783
995.201
993.543
992.015
990.833
990.188
990.188
990.833
992.015
993.543
995.201
996.783
998.134
999.15
999.776
1000
1000
999.804
999.268
998.397
997.239
995.884
994.467
993.161
992.153
991.602
991.602
992.153
993.161
994.467
995.884
997.239
998.397
999.268
999.804
1000
1000
999.832
999.385
998.658
997.692
996.562
995.382
994.296
993.459
993.002
993.002
993.459
994.296
995.382
996.562
997.692
998.658
999.385
999.832
1000
1000
999.862
999.503
998.917
998.14
997.233
996.287
995.417
994.747
994.381
994.381
994.747
995.417
996.287
997.233
998.14
998.917
999.503
999.862
1000
1000
999.894
999.62
999.174
998.584
997.895
997.177
996.519
996.012
995.736
995.736
996.012
996.519
997.177
997.895
998.584
999.174
999.62
999.894
1000
1000
999.926
999.737
999.43
999.022
998.548
998.054
997.602
997.254
997.064
997.064
997.254
997.602
998.054
998.548
999.022
999.43
999.737
999.926
1000
1000
999.959
999.854
999.683
999.456
999.193
998.918
998.667
998.473
998.368
998.368
998.473
998.667
998.918
999.193
999.456
999.683
999.854
999.959
1000
1000
999.992
999.97
999.934
999.887
999.831
999.773
999.719
999.677
999.655
999.655
999.677
999.719
999.773
999.831
999.887
999.934
999.97
999.992
1000
1000
1000.02
1000.09
1000.18
1000.32
1000.47
1000.62
1000.77
1000.88
1000.94
1000.94
1000.88
1000.77
1000.62
1000.47
1000.32
1000.18
1000.09
1000.02
1000
1000
999.665
998.712
997.167
995.113
992.704
990.179
987.848
986.046
985.062
985.062
986.046
987.848
990.179
992.704
995.113
997.167
998.712
999.665
1000
1000
999.702
998.868
997.516
995.718
993.61
991.404
989.369
987.796
986.937
986.937
987.796
989.369
991.404
993.61
995.718
997.516
998.868
999.702
1000
1000
999.738
999.024
997.862
996.319
994.513
992.623
990.882
989.538
988.804
988.804
989.538
990.882
992.623
994.513
996.319
997.862
999.024
999.738
1000
1000
999.776
999.179
998.207
996.917
995.408
993.832
992.382
991.263
990.653
990.653
991.263
992.382
993.832
995.408
996.917
998.207
999.179
999.776
1000
1000
999.816
999.334
998.55
997.509
996.294
995.026
993.861
992.963
992.474
992.474
992.963
993.861
995.026
996.294
997.509
998.55
999.334
999.816
1000
1000
999.857
999.489