# vtk DataFile Version 3.0
ParaView Output
ASCII
DATASET STRUCTURED_GRID
DIMENSIONS 21 21 21
POINTS 9261 double
0 0 0
0.5 0 0
1 0 0
1.5 0 0
2 0 0
2.5 0 0
3 0 0
3.5 0 0
4 0 0
4.5 0 0
5 0 0
5.5 0 0
6 0 0
6.5 0 0
7 0 0
7.5 0 0
8 0 0
8.5 0 0
9 0 0
9.5 0 0
10 0 0
0 0.5 0
0.5 0.5 0
1 0.5 0
1.5 0.5 0
2 0.5 0
2.5 0.5 0
3 0.5 0
3.5 0.5 0
4 0.5 0
4.5 0.5 0
5 0.5 0
5.5 0.5 0
6 0.5 0
6.5 0.5 0
7 0.5 0
7.5 0.5 0
8 0.5 0
8.5 0.5 0
9 0.5 0
9.5 0.5 0
10 0.5 0
0 1 0
0.5 1 0
1 1 0
1.5 1 0
2 1 0
2.5 1 0
3 1 0
3.5 1 0
4 1 0
4.5 1 0
5 1 0
5.5 1 0
6 1 0
6.5 1 0
7 1 0
7.5 1 0
8 1 0
8.5 1 0
9 1 0
9.5 1 0
10 1 0
0 1.5 0
0.5 1.5 0
1 1.5 0
1.5 1.5 0
2 1.5 0
2.5 1.5 0
3 1.5 0
3.5 1.5 0
4 1.5 0
4.5 1.5 0
5 1.5 0
5.5 1.5 0
6 1.5 0
6.5 1.5 0
7 1.5 0
7.5 1.5 0
8 1.5 0
8.5 1.5 0
9 1.5 0
9.5 1.5 0
10 1.5 0
0 2 0
0.5 2 0
1 2 0
1.5 2 0
2 2 0
2.5 2 0
3 2 0
3.5 2 0
4 2 0
4.5 2 0
5 2 0
5.5 2 0
6 2 0
6.5 2 0
7 2 0
7.5 2 0
8 2 0
8.5 2 0
9 2 0
9.5 2 0
10 2 0
0 2.5 0
0.5 2.5 0
1 2.5 0
1.5 2.5 0
2 2.5 0
2.5 2.5 0
3 2.5 0
3.5 2.5 0
4 2.5 0
4.5 2.5 0
5 2.5 0
5.5 2.5 0
6 2.5 0
6.5 2.5 0
7 2.5 0
7.5 2.5 0
8 2.5 0
8.5 2.5 0
9 2.5 0
9.5 2.5 0
10 2.5 0
0 3 0
0.5 3 0
1 3 0
1.5 3 0
2 3 0
2.5 3 0
3 3 0
3.5 3 0
4 3 0
4.5 3 0
5 3 0
5.5 3 0
6 3 0
6.5 3 0
7 3 0
7.5 3 0
8 3 0
8.5 3 0
9 3 0
9.5 3 0
10 3 0
0 3.5 0
0.5 3.5 0
1 3.5 0
1.5 3.5 0
2 3.5 0
2.5 3.5 0
3 3.5 0
3.5 3.5 0
4 3.5 0
4.5 3.5 0
5 3.5 0
5.5 3.5 0
6 3.5 0
6.5 3.5 0
7 3.5 0
7.5 3.5 0
8 3.5 0
8.5 3.5 0
9 3.5 0
9.5 3.5 0
10 3.5 0
0 4 0
0.5 4 0
1 4 0
1.5 4 0
2 4 0
2.5 4 0
3 4 0
3.5 4 0
4 4 0
4.5 4 0
5 4 0
5.5 4 0
6 4 0
6.5 4 0
7 4 0
7.5 4 0
8 4 0
8.5 4 0
9 4 0
9.5 4 0
10 4 0
0 4.5 0
0.5 4.5 0
1 4.5 0
1.5 4.5 0
2 4.5 0
2.5 4.5 0
3 4.5 0
3.5 4.5 0
4 4.5 0
4.5 4.5 0
5 4.5 0
5.5 4.5 0
6 4.5 0
6.5 4.5 0
7 4.5 0
7.5 4.5 0
8 4.5 0
8.5 4.5 0
9 4.5 0
9.5 4.5 0
10 4.5 0
0 5 0
0.5 5 0
1 5 0
1.5 5 0
2 5 0
2.5 5 0
3 5 0
3.5 5 0
4 5 0
4.5 5 0
5 5 0
5.5 5 0
6 5 0
6.5 5 0
7 5 0
7.5 5 0
8 5 0
8.5 5 0
9 5 0
9.5 5 0
10 5 0
0 5.5 0
0.5 5.5 0
1 5.5 0
1.5 5.5 0
2 5.5 0
2.5 5.5 0
3 5.5 0
3.5 5.5 0
4 5.5 0
4.5 5.5 0
5 5.5 0
5.5 5.5 0
6 5.5 0
6.5 5.5 0
7 5.5 0
7.5 5.5 0
8 5.5 0
8.5 5.5 0
9 5.5 0
9.5 5.5 0
10 5.5 0
0 6 0
0.5 6 0
1 6 0
1.5 6 0
2 6 0
2.5 6 0
3 6 0
3.5 6 0
4 6 0
4.5 6 0
5 6 0
5.5 6 0
6 6 0
6.5 6 0
7 6 0
7.5 6 0
8 6 0
8.5 6 0
9 6 0
9.5 6 0
10 6 0
0 6.5 0
0.5 6.5 0
1 6.5 0
1.5 6.5 0
2 6.5 0
2.5 6.5 0
3 6.5 0
3.5 6.5 0
4 6.5 0
4.5 6.5 0
5 6.5 0
5.5 6.5 0
6 6.5 0
6.5 6.5 0
7 6.5 0
7.5 6.5 0
8 6.5 0
8.5 6.5 0
9 6.5 0
9.5 6.5 0
10 6.5 0
0 7 0
0.5 7 0
1 7 0
1.5 7 0
2 7 0
2.5 7 0
3 7 0
3.5 7 0
4 7 0
4.5 7 0
5 7 0
5.5 7 0
6 7 0
6.5 7 0
7 7 0
7.5 7 0
8 7 0
8.5 7 0
9 7 0
9.5 7 0
10 7 0
0 7.5 0
0.5 7.5 0
1 7.5 0
1.5 7.5 0
2 7.5 0
2.5 7.5 0
3 7.5 0
3.5 7.5 0
4 7.5 0
4.5 7.5 0
5 7.5 0
5.5 7.5 0
6 7.5 0
6.5 7.5 0
7 7.5 0
7.5 7.5 0
8 7.5 0
8.5 7.5 0
9 7.5 0
9.5 7.5 0
10 7.5 0
0 8 0
0.5 8 0
1 8 0
1.5 8 0
2 8 0
2.5 8 0
3 8 0
3.5 8 0
4 8 0
4.5 8 0
5 8 0
5.5 8 0
6 8 0
6.5 8 0
7 8 0
7.5 8 0
8 8 0
8.5 8 0
9 8 0
9.5 8 0
10 8 0
0 8.5 0
0.5 8.5 0
1 8.5 0
1.5 8.5 0
2 8.5 0
2.5 8.5 0
3 8.5 0
3.5 8.5 0
4 8.5 0
4.5 8.5 0
5 8.5 0
5.5 8.5 0
6 8.5 0
6.5 8.5 0
7 8.5 0
7.5 8.5 0
8 8.5 0
8.5 8.5 0
9 8.5 0
9.5 8.5 0
10 8.5 0
0 9 0
0.5 9 0
1 9 0
1.5 9 0
2 9 0
2.5 9 0
3 9 0
3.5 9 0
4 9 0
4.5 9 0
5 9 0
5.5 9 0
6 9 0
6.5 9 0
7 9 0
7.5 9 0
8 9 0
8.5 9 0
9 9 0
9.5 9 0
10 9 0
0 9.5 0
0.5 9.5 0
1 9.5 0
1.5 9.5 0
2 9.5 0
2.5 9.5 0
3 9.5 0
3.5 9.5 0
4 9.5 0
4.5 9.5 0
5 9.5 0
5.5 9.5 0
6 9.5 0
6.5 9.5 0
7 9.5 0
7.5 9.5 0
8 9.5 0
8.5 9.5 0
9 9.5 0
9.5 9.5 0
10 9.5 0
0 10 0
0.5 10 0
1 10 0
1.5 10 0
2 10 0
2.5 10 0
3 10 0
3.5 10 0
4 10 0
4.5 10 0
5 10 0
5.5 10 0
6 10 0
6.5 10 0
7 10 0
7.5 10 0
8 10 0
8.5 10 0
9 10 0
9.5 10 0
10 10 0
0 0 0.5
0.5 0 0.5
1 0 0.5
1.5 0 0.5
2 0 0.5
2.5 0 0.5
3 0 0.5
3.5 0 0.5
4 0 0.5
4.5 0 0.5
5 0 0.5
5.5 0 0.5
6 0 0.5
6.5 0 0.5
7 0 0.5
7.5 0 0.5
8 0 0.5
8.5 0 0.5
9 0 0.5
9.5 0 0.5
10 0 0.5
0 0.5 0.5
0.5 0.5 0.5
1 0.5 0.5
1.5 0.5 0.5
2 0.5 0.5
2.5 0.5 0.5
3 0.5 0.5
3.5 0.5 0.5
4 0.5 0.5
4.5 0.5 0.5
5 0.5 0.5
5.5 0.5 0.5
6 0.5 0.5
6.5 0.5 0.5
7 0.5 0.5
7.5 0.5 0.5
8 0.5 0.5
8.5 0.5 0.5
9 0.5 0.5
9.5 0.5 0.5
10 0.5 0.5
0 1 0.5
0.5 1 0.5
1 1 0.5
1.5 1 0.5
2 1 0.5
2.5 1 0.5
3 1 0.5
3.5 1 0.5
4 1 0.5
4.5 1 0.5
5 1 0.5
5.5 1 0.5
6 1 0.5
6.5 1 0.5
7 1 0.5
7.5 1 0.5
8 1 0.5
8.5 1 0.5
9 1 0.5
9.5 1 0.5
10 1 0.5
0 1.5 0.5
0.5 1.5 0.5
1 1.5 0.5
1.5 1.5 0.5
2 1.5 0.5
2.5 1.5 0.5
3 1.5 0.5
3.5 1.5 0.5
4 1.5 0.5
4.5 1.5 0.5
5 1.5 0.5
5.5 1.5 0.5
6 1.5 0.5
6.5 1.5 0.5
7 1.5 0.5
7.5 1.5 0.5
8 1.5 0.5
8.5 1.5 0.5
9 1.5 0.5
9.5 1.5 0.5
10 1.5 0.5
0 2 0.5
0.5 2 0.5
1 2 0.5
1.5 2 0.5
2 2 0.5
2.5 2 0.5
3 2 0.5
3.5 2 0.5
4 2 0.5
4.5 2 0.5
5 2 0.5
5.5 2 0.5
6 2 0.5
6.5 2 0.5
7 2 0.5
7.5 2 0.5
8 2 0.5
8.5 2 0.5
9 2 0.5
9.5 2 0.5
10 2 0.5
0 2.5 0.5
0.5 2.5 0.5
1 2.5 0.5
1.5 2.5 0.5
2 2.5 0.5
2.5 2.5 0.5
3 2.5 0.5
3.5 2.5 0.5
4 2.5 0.5
4.5 2.5 0.5
5 2.5 0.5
5.5 2.5 0.5
6 2.5 0.5
6.5 2.5 0.5
7 2.5 0.5
7.5 2.5 0.5
8 2.5 0.5
8.5 2.5 0.5
9 2.5 0.5
9.5 2.5 0.5
10 2.5 0.5
0 3 0.5
0.5 3 0.5
1 3 0.5
1.5 3 0.5
2 3 0.5
2.5 3 0.5
3 3 0.5
3.5 3 0.5
4 3 0.5
4.5 3 0.5
5 3 0.5
5.5 3 0.5
6 3 0.5
6.5 3 0.5
7 3 0.5
7.5 3 0.5
8 3 0.5
8.5 3 0.5
9 3 0.5
9.5 3 0.5
10 3 0.5
0 3.5 0.5
0.5 3.5 0.5
1 3.5 0.5
1.5 3.5 0.5
2 3.5 0.5
2.5 3.5 0.5
3 3.5 0.5
3.5 3.5 0.5
4 3.5 0.5
4.5 3.5 0.5
5 3.5 0.5
5.5 3.5 0.5
6 3.5 0.5
6.5 3.5 0.5
7 3.5 0.5
7.5 3.5 0.5
8 3.5 0.5
8.5 3.5 0.5
9 3.5 0.5
9.5 3.5 0.5
10 3.5 0.5
0 4 0.5
0.5 4 0.5
1 4 0.5
1.5 4 0.5
2 4 0.5
2.5 4 0.5
3 4 0.5
3.5 4 0.5
4 4 0.5
4.5 4 0.5
5 4 0.5
5.5 4 0.5
6 4 0.5
6.5 4 0.5
7 4 0.5
7.5 4 0.5
8 4 0.5
8.5 4 0.5
9 4 0.5
9.5 4 0.5
10 4 0.5
0 4.5 0.5
0.5 4.5 0.5
1 4.5 0.5
1.5 4.5 0.5
2 4.5 0.5
2.5 4.5 0.5
3 4.5 0.5
3.5 4.5 0.5
4 4.5 0.5
4.5 4.5 0.5
5 4.5 0.5
5.5 4.5 0.5
6 4.5 0.5
6.5 4.5 0.5
7 4.5 0.5
7.5 4.5 0.5
8 4.5 0.5
8.5 4.5 0.5
9 4.5 0.5
9.5 4.5 0.5
10 4.5 0.5
0 5 0.5
0.5 5 0.5
1 5 0.5
1.5 5 0.5
2 5 0.5
2.5 5 0.5
3 5 0.5
3.5 5 0.5
4 5 0.5
4.5 5 0.5
5 5 0.5
5.5 5 0.5
6 5 0.5
6.5 5 0.5
7 5 0.5
7.5 5 0.5
8 5 0.5
8.5 5 0.5
9 5 0.5
9.5 5 0.5
10 5 0.5
0 5.5 0.5
0.5 5.5 0.5
1 5.5 0.5
1.5 5.5 0.5
2 5.5 0.5
2.5 5.5 0.5
3 5.5 0.5
3.5 5.5 0.5
4 5.5 0.5
4.5 5.5 0.5
5 5.5 0.5
5.5 5.5 0.5
6 5.5 0.5
6.5 5.5 0.5
7 5.5 0.5
7.5 5.5 0.5
8 5.5 0.5
8.5 5.5 0.5
9 5.5 0.5
9.5 5.5 0.5
10 5.5 0.5
0 6 0.5
0.5 6 0.5
1 6 0.5
1.5 6 0.5
2 6 0.5
2.5 6 0.5
3 6 0.5
3.5 6 0.5
4 6 0.5
4.5 6 0.5
5 6 0.5
5.5 6 0.5
6 6 0.5
6.5 6 0.5
7 6 0.5
7.5 6 0.5
8 6 0.5
8.5 6 0.5
9 6 0.5
9.5 6 0.5
10 6 0.5
0 6.5 0.5
0.5 6.5 0.5
1 6.5 0.5
1.5 6.5 0.5
2 6.5 0.5
2.5 6.5 0.5
3 6.5 0.5
3.5 6.5 0.5
4 6.5 0.5
4.5 6.5 0.5
5 6.5 0.5
5.5 6.5 0.5
6 6.5 0.5
6.5 6.5 0.5
7 6.5 0.5
7.5 6.5 0.5
8 6.5 0.5
8.5 6.5 0.5
9 6.5 0.5
9.5 6.5 0.5
10 6.5 0.5
0 7 0.5
0.5 7 0.5
1 7 0.5
1.5 7 0.5
2 7 0.5
2.5 7 0.5
3 7 0.5
3.5 7 0.5
4 7 0.5
4.5 7 0.5
5 7 0.5
5.5 7 0.5
6 7 0.5
6.5 7 0.5
7 7 0.5
7.5 7 0.5
8 7 0.5
8.5 7 0.5
9 7 0.5
9.5 7 0.5
10 7 0.5
0 7.5 0.5
0.5 7.5 0.5
1 7.5 0.5
1.5 7.5 0.5
2 7.5 0.5
2.5 7.5 0.5
3 7.5 0.5
3.5 7.5 0.5
4 7.5 0.5
4.5 7.5 0.5
5 7.5 0.5
5.5 7.5 0.5
6 7.5 0.5
6.5 7.5 0.5
7 7.5 0.5
7.5 7.5 0.5
8 7.5 0.5
8.5 7.5 0.5
9 7.5 0.5
9.5 7.5 0.5
10 7.5 0.5
0 8 0.5
0.5 8 0.5
1 8 0.5
1.5 8 0.5
2 8 0.5
2.5 8 0.5
3 8 0.5
3.5 8 0.5
4 8 0.5
4.5 8 0.5
5 8 0.5
5.5 8 0.5
6 8 0.5
6.5 8 0.5
7 8 0.5
7.5 8 0.5
8 8 0.5
8.5 8 0.5
9 8 0.5
9.5 8 0.5
10 8 0.5
0 8.5 0.5
0.5 8.5 0.5
1 8.5 0.5
1.5 8.5 0.5
2 8.5 0.5
2.5 8.5 0.5
3 8.5 0.5
3.5 8.5 0.5
4 8.5 0.5
4.5 8.5 0.5
5 8.5 0.5
5.5 8.5 0.5
6 8.5 0.5
6.5 8.5 0.5
7 8.5 0.5
7.5 8.5 0.5
8 8.5 0.5
8.5 8.5 0.5
9 8.5 0.5
9.5 8.5 0.5
10 8.5 0.5
0 9 0.5
0.5 9 0.5
1 9 0.5
1.5 9 0.5
2 9 0.5
2.5 9 0.5
3 9 0.5
3.5 9 0.5
4 9 0.5
4.5 9 0.5
5 9 0.5
5.5 9 0.5
6 9 0.5
6.5 9 0.5
7 9 0.5
7.5 9 0.5
8 9 0.5
8.5 9 0.5
9 9 0.5
9.5 9 0.5
10 9 0.5
0 9.5 0.5
0.5 9.5 0.5
1 9.5 0.5
1.5 9.5 0.5
2 9.5 0.5
2.5 9.5 0.5
3 9.5 0.5
3.5 9.5 0.5
4 9.5 0.5
4.5 9.5 0.5
5 9.5 0.5
5.5 9.5 0.5
6 9.5 0.5
6.5 9.5 0.5
7 9.5 0.5
7.5 9.5 0.5
8 9.5 0.5
8.5 9.5 0.5
9 9.5 0.5
9.5 9.5 0.5
10 9.5 0.5
0 10 0.5
0.5 10 0.5
1 10 0.5
1.5 10 0.5
2 10 0.5
2.5 10 0.5
3 10 0.5
3.5 10 0.5
4 10 0.5
4.5 10 0.5
5 10 0.5
5.5 10 0.5
6 10 0.5
6.5 10 0.5
7 10 0.5
7.5 10 0.5
8 10 0.5
8.5 10 0.5
9 10 0.5
9.5 10 0.5
10 10 0.5
0 0 1
0.5 0 1
1 0 1
1.5 0 1
2 0 1
2.5 0 1
3 0 1
3.5 0 1
4 0 1
4.5 0 1
5 0 1
5.5 0 1
6 0 1
6.5 0 1
7 0 1
7.5 0 1
8 0 1
8.5 0 1
9 0 1
9.5 0 1
10 0 1
0 0.5 1
0.5 0.5 1
1 0.5 1
1.5 0.5 1
2 0.5 1
2.5 0.5 1
3 0.5 1
3.5 0.5 1
4 0.5 1
4.5 0.5 1
5 0.5 1
5.5 0.5 1
6 0.5 1
6.5 0.5 1
7 0.5 1
7.5 0.5 1
8 0.5 1
8.5 0.5 1
9 0.5 1
9.5 0.5 1
10 0.5 1
0 1 1
0.5 1 1
1 1 1
1.5 1 1
2 1 1
2.5 1 1
3 1 1
3.5 1 1
4 1 1
4.5 1 1
5 1 1
5.5 1 1
6 1 1
6.5 1 1
7 1 1
7.5 1 1
8 1 1
8.5 1 1
9 1 1
9.5 1 1
10 1 1
0 1.5 1
0.5 1.5 1
1 1.5 1
1.5 1.5 1
2 1.5 1
2.5 1.5 1
3 1.5 1
3.5 1.5 1
4 1.5 1
4.5 1.5 1
5 1.5 1
5.5 1.5 1
6 1.5 1
6.5 1.5 1
7 1.5 1
7.5 1.5 1
8 1.5 1
8.5 1.5 1
9 1.5 1
9.5 1.5 1
10 1.5 1
0 2 1
0.5 2 1
1 2 1
1.5 2 1
2 2 1
2.5 2 1
3 2 1
3.5 2 1
4 2 1
4.5 2 1
5 2 1
5.5 2 1
6 2 1
6.5 2 1
7 2 1
7.5 2 1
8 2 1
8.5 2 1
9 2 1
9.5 2 1
10 2 1
0 2.5 1
0.5 2.5 1
1 2.5 1
1.5 2.5 1
2 2.5 1
2.5 2.5 1
3 2.5 1
3.5 2.5 1
4 2.5 1
4.5 2.5 1
5 2.5 1
5.5 2.5 1
6 2.5 1
6.5 2.5 1
7 2.5 1
7.5 2.5 1
8 2.5 1
8.5 2.5 1
9 2.5 1
9.5 2.5 1
10 2.5 1
0 3 1
0.5 3 1
1 3 1
1.5 3 1
2 3 1
2.5 3 1
3 3 1
3.5 3 1
4 3 1
4.5 3 1
5 3 1
5.5 3 1
6 3 1
6.5 3 1
7 3 1
7.5 3 1
8 3 1
8.5 3 1
9 3 1
9.5 3 1
10 3 1
0 3.5 1
0.5 3.5 1
1 3.5 1
1.5 3.5 1
2 3.5 1
2.5 3.5 1
3 3.5 1
3.5 3.5 1
4 3.5 1
4.5 3.5 1
5 3.5 1
5.5 3.5 1
6 3.5 1
6.5 3.5 1
7 3.5 1
7.5 3.5 1
8 3.5 1
8.5 3.5 1
9 3.5 1
9.5 3.5 1
10 3.5 1
0 4 1
0.5 4 1
1 4 1
1.5 4 1
2 4 1
2.5 4 1
3 4 1
3.5 4 1
4 4 1
4.5 4 1
5 4 1
5.5 4 1
6 4 1
6.5 4 1
7 4 1
7.5 4 1
8 4 1
8.5 4 1
9 4 1
9.5 4 1
10 4 1
0 4.5 1
0.5 4.5 1
1 4.5 1
1.5 4.5 1
2 4.5 1
2.5 4.5 1
3 4.5 1
3.5 4.5 1
4 4.5 1
4.5 4.5 1
5 4.5 1
5.5 4.5 1
6 4.5 1
6.5 4.5 1
7 4.5 1
7.5 4.5 1
8 4.5 1
8.5 4.5 1
9 4.5 1
9.5 4.5 1
10 4.5 1
0 5 1
0.5 5 1
1 5 1
1.5 5 1
2 5 1
2.5 5 1
3 5 1
3.5 5 1
4 5 1
4.5 5 1
5 5 1
5.5 5 1
6 5 1
6.5 5 1
7 5 1
7.5 5 1
8 5 1
8.5 5 1
9 5 1
9.5 5 1
10 5 1
0 5.5 1
0.5 5.5 1
1 5.5 1
1.5 5.5 1
2 5.5 1
2.5 5.5 1
3 5.5 1
3.5 5.5 1
4 5.5 1
4.5 5.5 1
5 5.5 1
5.5 5.5 1
6 5.5 1
[...]
POINT_DATA 9261
SCALARS Temperature double
LOOKUP_TABLE default
1000
1000
1000
1000
1000
1000
1000
1000
1000
1000
1000
1000
1000
1000
1000
1000
1000
1000
1000
1000
1000
1000
1000
1000
1000
1000
1000
1000
1000
1000
1000
1000
1000
1000
1000
1000
1000
1000
1000
1000
1000
1000
1000
1000
1000
1000
1000
1000
1000
1000
1000
1000
1000
1000
1000
1000
1000
1000
1000
1000
1000
1000
1000
1000
1000
1000
1000
1000
1000
1000
1000
1000
1000
1000
1000
1000
1000
1000
1000
1000
1000
1000
1000
1000
1000
1000
1000
1000
1000
1000
1000
1000
1000
1000
1000
1000
1000
1000
1000
1000
1000
1000
1000
1000
1000
1000
1000
1000
1000
1000
1000
1000
1000
1000
1000
1000
1000
1000
1000
1000
1000
1000
1000
1000
1000
1000
1000
1000
1000
1000
1000
1000
1000
1000
1000
1000
1000
1000
1000
1000
1000
1000
1000
1000
1000
1000
1000
1000
1000
1000
1000
1000
1000
1000
1000
1000
1000
1000
1000
1000
1000
1000
1000
1000
1000
1000
1000
1000
1000
1000
1000
1000
1000
1000
1000
1000
1000
1000
1000
1000
1000
1000
1000
1000
1000
1000
1000
1000
1000
1000
1000
1000
1000
1000
1000
1000
1000
1000
1000
1000
1000
1000
1000
1000
1000
1000
1000
1000
1000
1000
1000
1000
1000
1000
1000
1000
1000
1000
1000
1000
1000
1000
1000
1000
1000
1000
1000
1000
1000
1000
1000
1000
1000
1000
1000
1000
1000
1000
1000
1000
1000
1000
1000
1000
1000
1000
1000
1000
1000
1000
1000
1000
1000
1000
1000
1000
1000
1000
1000
1000
1000
1000
1000
1000
1000
1000
1000
1000
1000
1000
1000
1000
1000
1000
1000
1000
1000
1000
1000
1000
1000
1000
1000
1000
1000
1000
1000
1000
1000
1000
1000
1000
1000
1000
1000
1000
1000
1000
1000
1000
1000
1000
1000
1000
1000
1000
1000
1000
1000
1000
1000
1000
1000
1000
1000
1000
1000
1000
1000
1000
1000
1000
1000
1000
1000
1000
1000
1000
1000
1000
1000
1000
1000
1000
1000
1000
1000
1000
1000
1000
1000
1000
1000
1000
1000
1000
1000
1000
1000
1000
1000
1000
1000
1000
1000
1000
1000
1000
1000
1000
1000
1000
1000
1000
1000
1000
1000
1000
1000
1000
1000
1000
1000
1000
1000
1000
1000
1000
1000
1000
1000
1000
1000
1000
1000
1000
1000
1000
1000
1000
1000
1000
1000
1000
1000
1000
1000
1000
1000
1000
1000
1000
1000
1000
1000
1000
1000
1000
1000
1000
1000
1000
1000
1000
1000
1000
1000
1000
1000
1000
1000
1000
1000
1000
1000
1000
1000
1000
1000
1000
1000
1000
1000
1000
1000
1000
1000
1000
1000
1000
1000
1000
997.256
994.583
992.049
989.719
987.648
985.887
984.476
983.446
982.819
982.608
982.819
983.446
984.476
985.887
987.648
989.719
992.049
994.583
997.256
1000
1000
997.256
994.583
992.049
989.719
987.648
985.887
984.476
983.446
982.819
982.608
982.819
983.446
984.476
985.887
987.648
989.719
992.049
994.583
997.256
1000
1000
997.256
994.583
992.049
989.719
987.648
985.887
984.476
983.446
982.819
982.608
982.819
983.446
984.476
985.887
987.648
989.719
992.049
994.583
997.256
1000
1000
997.256
994.583
992.049
989.719
987.648
985.887
984.476
983.446
982.819
982.608
982.819
983.446
984.476
985.887
987.648
989.719
992.049
994.583
997.256
1000
1000
997.256
994.583
992.049
989.719
987.648
985.887
984.476
983.446
982.819
982.608
982.819
983.446
984.476
985.887
987.648
989.719
992.049
994.583
997.256
1000
1000
997.256
994.583
992.049
989.719
987.648
985.887
984.476
983.446
982.819
982.608
982.819
983.446
984.476
985.887
987.648
989.719
992.049
994.583
997.256
1000
1000
997.256
994.583
992.049
989.719
987.648
985.887
984.476
983.446
982.819
982.608
982.819
983.446
984.476
985.887
987.648
989.719
992.049
994.583
997.256
1000
1000
997.256
994.583
992.049
989.719
987.648
985.887
984.476
983.446
982.819
982.608
982.819
983.446
984.476
985.887
987.648
989.719
992.049
994.583
997.256
1000
1000
997.256
994.583
992.049
989.719
987.648
985.887
984.476
983.446
982.819
982.608
982.819
983.446
984.476
985.887
987.648
989.719
992.049
994.583
997.256
1000
1000
997.256
994.583
992.049
989.719
987.648
985.887
984.476
983.446
982.819
982.608
982.819
983.446
984.476
985.887
987.648
989.719
992.049
994.583
997.256
1000
1000
997.256
994.583
992.049
989.719
987.648
985.887
984.476
983.446
982.819
982.608
982.819
983.446
984.476
985.887
987.648
989.719
992.049
994.583
997.256
1000
1000
997.256
994.583
992.049
989.719
987.648
985.887
984.476
983.446
982.819
982.608
982.819
983.446
984.476
985.887
987.648
989.719
992.049
994.583
997.256
1000
1000
997.256
994.583
992.049
989.719
987.648
985.887
984.476
983.446
982.819
982.608
982.819
983.446
984.476
985.887
987.648
989.719
992.049
994.583
997.256
1000
1000
997.256
994.583
992.049
989.719
987.648
985.887
984.476
983.446
982.819
982.608
982.819
983.446
984.476
985.887
987.648
989.719
992.049
994.583
997.256
1000
1000
997.256
994.583
992.049
989.719
987.648
985.887
984.476
983.446
982.819
982.608
982.819
983.446
984.476
985.887
987.648
989.719
992.049
994.583
997.256
1000
1000
997.256
994.583
992.049
989.719
987.648
985.887
984.476
983.446
982.819
982.608
982.819
983.446
984.476
985.887
987.648
989.719
992.049
994.583
997.256
1000
1000
997.256
994.583
992.049
989.719
987.648
985.887
984.476
983.446
982.819
982.608
982.819
983.446
984.476
985.887
987.648
989.719
992.049
994.583
997.256
1000
1000
997.256
994.583
992.049
989.719
987.648
985.887
984.476
983.446
982.819
982.608
982.819
983.446
984.476
985.887
987.648
989.719
992.049
994.583
997.256
1000
1000
997.256
994.583
992.049
989.719
987.648
985.887
984.476
983.446
982.819
982.608
982.819
983.446
984.476
985.887
987.648
989.719
992.049
994.583
997.256
1000
1000
997.256
994.583
992.049
989.719
987.648
985.887
984.476
983.446
982.819
982.608
982.819
983.446
984.476
985.887
987.648
989.719
992.049
994.583
997.256
1000
1000
997.256
994.583
992.049
989.719
987.648
985.887
984.476
983.446
982.819
982.608
982.819
983.446
984.476
985.887
987.648
989.719
992.049
994.583
997.256
1000
1000
994.441
989.026
983.895
979.177
974.987
971.425
968.571
966.488
965.221
964.795
965.221
966.488
968.571
971.425
974.987
979.177
983.895
989.026
994.441
1000
1000
994.441
989.026
983.895
979.177
974.987
971.425
968.571
966.488
965.221
964.795
965.221
966.488
968.571
971.425
974.987
979.177
983.895
989.026
994.441
1000
1000
994.441
989.026
983.895
979.177
974.987
971.425
968.571
966.488
965.221
964.795
965.221
966.488
968.571
971.425
974.987
979.177
983.895
989.026
994.441
1000
1000
994.441
989.026
983.895
979.177
974.987
971.425
968.571
966.488
965.221
964.795
965.221
966.488
968.571
971.425
974.987
979.177
983.895
989.026
994.441
1000
1000
994.441
989.026
983.895
979.177
974.987
971.425
968.571
966.488
965.221
964.795
965.221
966.488
968.571
971.425
974.987
979.177
983.895
989.026
994.441
1000
1000
994.441
989.026
983.895
979.177
974.987
971.425
968.571
966.488
965.221
964.795
965.221
966.488
968.571
971.425
974.987
979.177
983.895
989.026
994.441
1000
1000
994.441
989.026
983.895
979.177
974.987
971.425
968.571
966.488
965.221
964.795
965.221
966.488
968.571
971.425
974.987
979.177
983.895
989.026
994.441
1000
1000
994.441
989.026
983.895
979.177
974.987
971.425
968.571
966.488
965.221
964.795
965.221
966.488
968.571
971.425
974.987
979.177
983.895
989.026
994.441
1000
1000
994.441
989.026
983.895
979.177
974.987
971.425
968.571
966.488
965.221
964.795
965.221
966.488
968.571
971.425
974.987
979.177
983.895
989.026
994.441
1000
1000
994.441
989.026
983.895
979.177
974.987
971.425
968.571
966.488
965.221
964.795
965.221
966.488
968.571
971.425
974.987
979.177
983.895
989.026
994.441
1000
1000
994.441
989.026
983.895
979.177
974.987
971.425
968.571
966.488
965.221
964.795
965.221
966.488
968.571
971.425
974.987
979.177
983.895
989.026
994.441
1000
1000
994.441
989.026
983.895
979.177
974.987
971.425
968.571
966.488
965.221
964.795
965.221
966.488
968.571
971.425
974.987
979.177
983.895
989.026
994.441
1000
1000
994.441
989.026
983.895
979.177
974.987
971.425
968.571
966.488
965.221
964.795
965.221
966.488
968.571
971.425
974.987
979.177
983.895
989.026
994.441
1000
1000
994.441
989.026
983.895
979.177
974.987
971.425
968.571
966.488
965.221
964.795
965.221
966.488
968.571
971.425
974.987
979.177
983.895
989.026
994.441
1000
1000
994.441
989.026
983.895
979.177
974.987
971.425
968.571
966.488
965.221
964.795
965.221
966.488
968.571
971.425
974.987
979.177
983.895
989.026
994.441
1000
1000
994.441
989.026
983.895
979.177
974.987
971.425
968.571
966.488
965.221
964.795
965.221
966.488
968.571
971.425
974.987
979.177
983.895
989.026
994.441
1000
1000
994.441
989.026
983.895
979.177
974.987
971.425
968.571
966.488
965.221
964.795
965.221
966.488
968.571
971.425
974.987
979.177
983.895
989.026
994.441
1000
1000
994.441
989.026
983.895
979.177
974.987
971.425
968.571
966.488
965.221
964.795
965.221
966.488
968.571
971.425
974.987
979.177
983.895
989.026
994.441
1000
1000
994.441
989.026
983.895
979.177
974.987
971.425
968.571
966.488
965.221
964.795
965.221
966.488
968.571
971.425
974.987
979.177
983.895
989.026
994.441
1000
1000
994.441
989.026
983.895
979.177
974.987
971.425
968.571
966.488
965.221
964.795
965.221
966.488
968.571
971.425
974.987
979.177
983.895
989.026
994.441
1000
1000
994.441
989.026
983.895
979.177
974.987
971.425
968.571
966.488
965.221
964.795
965.221
966.488
968.571
971.425
974.987
979.177
983.895
989.026
994.441
1000
1000
991.481
983.186
975.328
968.107
961.699
956.254
951.894
948.715
946.781
946.132
946.781
948.715
951.894
956.254
961.699
968.107
975.328
983.186
991.481
1000
1000
991.481
983.186
975.328
968.107
961.699
956.254
951.894
948.715
946.781
946.132
946.781
948.715
951.894
956.254
961.699
968.107
975.328
983.186
991.481
1000
1000
991.481
983.186
975.328
968.107
961.699
956.254
951.894
948.715
946.781
946.132
946.781
948.715
951.894
956.254
961.699
968.107
975.328
983.186
991.481
1000
1000
991.481
983.186
975.328
968.107
961.699
956.254
951.894
948.715
946.781
946.132
946.781
948.715
951.894
956.254
961.699
968.107
975.328
983.186
991.481
1000
1000
991.481
983.186
975.328
968.107
961.699
956.254
951.894
948.715
946.781
946.132
946.781
948.715
951.894
956.254
961.699
968.107
975.328
983.186
991.481
1000
1000
991.481
983.186
975.328
968.107
961.699
956.254
951.894
948.715
946.781
946.132
946.781
948.715
951.894
956.254
961.699
968.107
975.328
983.186
991.481
1000
1000
991.481
983.186
975.328
968.107
961.699
956.254
951.894
948.715
946.781
946.132
946.781
948.715
951.894
956.254
961.699
968.107
975.328
983.186
991.481
1000
1000
991.481
983.186
975.328
968.107
961.699
956.254
951.894
948.715
946.781
946.132
946.781
948.715
951.894
956.254
961.699
968.107
975.328
983.186
991.481
1000
1000
991.481
983.186
975.328
968.107
961.699
956.254
951.894
948.715
946.781
946.132
946.781
948.715
951.894
956.254
961.699
968.107
975.328
983.186
991.481
1000
1000
991.481
983.186
975.328
968.107
961.699
956.254
951.894
948.715
946.781
946.132
946.781
948.715
951.894
956.254
961.699
968.107
975.328
983.186
991.481
1000
1000
991.481
983.186
975.328
968.107
961.699
956.254
951.894
948.715
946.781
946.132
946.781
948.715
951.894
956.254
961.699
968.107
975.328
983.186
991.481
1000
1000
991.481
983.186
975.328
968.107
961.699
956.254
951.894
948.715
946.781
946.132
946.781
948.715
951.894
956.254
961.699
968.107
975.328
983.186
991.481
1000
1000
991.481
983.186
975.328
968.107
961.699
956.254
951.894
948.715
946.781
946.132
946.781
948.715
951.894
956.254
961.699
968.107
975.328
983.186
991.481
1000
1000
991.481
983.186
975.328
968.107
961.699
956.254
951.894
948.715
946.781
946.132
946.781
948.715
951.894
956.254
961.699
968.107
975.328
983.186
991.481
1000
1000
991.481
983.186
975.328
968.107
961.699
956.254
951.894
948.715
946.781
946.132
946.781
948.715
951.894
956.254
961.699
968.107
975.328
983.186
991.481
1000
1000
991.481
983.186
975.328
968.107
961.699
956.254
951.894
948.715
946.781
946.132
946.781
948.715
951.894
956.254
961.699
968.107
975.328
983.186
991.481
1000
1000
991.481
983.186
975.328
968.107
961.699
956.254
951.894
948.715
946.781
946.132
946.781
948.715
951.894
956.254
961.699
968.107
975.328
983.186
991.481
1000
1000
991.481
983.186
975.328
968.107
961.699
956.254
951.894
948.715
946.781
946.132
946.781
948.715
951.894
956.254
961.699
968.107
975.328
983.186
991.481
1000
1000
991.481
983.186
975.328
968.107
961.699
956.254
951.894
948.715
946.781
946.132
946.781
948.715
951.894
956.254
961.699
968.107
975.328
983.186
991.481
1000
1000
991.481
983.186
975.328
968.107
961.699
956.254
951.894
948.715
946.781
946.132
946.781
948.715
951.894
956.254
961.699
968.107
975.328
983.186
991.481
1000
1000
991.481
983.186
975.328
968.107
961.699
956.254
951.894
948.715
946.781
946.132
946.781
948.715
951.894
956.254
961.699
968.107
975.328
983.186
991.481
1000
1000
988.299
976.908
966.125
956.225
947.447
939.997
934.038
929.696
927.056
926.171
927.056
929.696
934.038
939.997
947.447
956.225
966.125
976.908
988.299
1000
1000
988.299
976.908
966.125
956.225
947.447
939.997
934.038
929.696
927.056
926.171
927.056
929.696
934.038
939.997
947.447
956.225
966.125
976.908
988.299
1000
1000
988.299
976.908
966.125
956.225
947.447
939.997
934.038
929.696
927.056
926.171
927.056
929.696
934.038
939.997
947.447
956.225
966.125
976.908
988.299
1000
1000
988.299
976.908
966.125
956.225
947.447
939.997
934.038
929.696
927.056
926.171
927.056
929.696
934.038
939.997
947.447
956.225
966.125
976.908
988.299
1000
1000
988.299
976.908
966.125
956.225
947.447
939.997
934.038
929.696
927.056
926.171
927.056
929.696
934.038
939.997
947.447
956.225
966.125
976.908
988.299
1000
1000
988.299
976.908
966.125
956.225
947.447
939.997
934.038
929.696
927.056
926.171
927.056
929.696
934.038
939.997
947.447
956.225
966.125
976.908
988.299
1000
1000
988.299
976.908
966.125
956.225
947.447
939.997
934.038
929.696
927.056
926.171
927.056
929.696
934.038
939.997
947.447
956.225
966.125
976.908
988.299
1000
1000
988.299
976.908
966.125
956.225
947.447
939.997
934.038
929.696
927.056
926.171
927.056
929.696
934.038
939.997
947.447
956.225
966.125
976.908
988.299
1000
1000
988.299
976.908
966.125
956.225
947.447
939.997
934.038
929.696
927.056
926.171
927.056
929.696
934.038
939.997
947.447
956.225
966.125
976.908
988.299
1000
1000
988.299
976.908
966.125
956.225
947.447
939.997
934.038
929.696
927.056
926.171
927.056
929.696
934.038
939.997
947.447
956.225
966.125
976.908
988.299
1000
1000
988.299
976.908
966.125
956.225
947.447
939.997
934.038
929.696
927.056
926.171
927.056
929.696
934.038
939.997
947.447
956.225
966.125
976.908
988.299
1000
1000
988.299
976.908
966.125
956.225
947.447
939.997
934.038
929.696
927.056
926.171
927.056
929.696
934.038
939.997
947.447
956.225
966.125
976.908
988.299
1000
1000
988.299
976.908
966.125
956.225
947.447
939.997
934.038
929.696
927.056
926.171
927.056
929.696
934.038
939.997
947.447
956.225
966.125
976.908
988.299
1000
1000
988.299
976.908
966.125
956.225
947.447
939.997
934.038
929.696
927.056
926.171
927.056
929.696
934.038
939.997
947.447
956.225
966.125
976.908
988.299
1000
1000
988.299
976.908
966.125
956.225
947.447
939.997
934.038
929.696
927.056
926.171
927.056
929.696
934.038
939.997
947.447
956.225
966.125
976.908
988.299
1000
1000
988.299
976.908
966.125
956.225
947.447
939.997
934.038
929.696
927.056
926.171
927.056
929.696
934.038
939.997
947.447
956.225
966.125
976.908
988.299
1000
1000
988.299
976.908
966.125
956.225
947.447
939.997
934.038
929.696
927.056
926.171
927.056
929.696
934.038
939.997
947.447
956.225
966.125
976.908
988.299
1000
1000
988.299
976.908
966.125
956.225
947.447
939.997
934.038
929.696
927.056
926.171
927.056
929.696
934.038
939.997
947.447
956.225
966.125
976.908
988.299
1000
1000
988.299
976.908
966.125
956.225
947.447
939.997
934.038
929.696
927.056
926.171
927.056
929.696
934.038
939.997
947.447
956.225
966.125
976.908
988.299
1000
1000
988.299
976.908
966.125
956.225
947.447
939.997
934.038
929.696
927.056
926.171
927.056
929.696
934.038
939.997
947.447
956.225
966.125
976.908
988.299
1000
1000
988.299
976.908
966.125
956.225
947.447
939.997
934.038
929.696
927.056
926.171
927.056
929.696
934.038
939.997
947.447
956.225
966.125
976.908
988.299
1000
1000
984.806
970.022
956.04
943.219
931.868
922.249
914.566
908.974
905.577
904.439
905.577
908.974
914.566
922.249
931.868
943.219
956.04
970.022
984.806
1000
1000
984.806
970.022
956.04
943.219
931.868
922.249
914.566
908.974
905.577
904.439
905.577
908.974
914.566
922.249
931.868
943.219
956.04
970.022
984.806
1000
1000
984.806
970.022
956.04
943.219
931.868
922.249
914.566
908.974
905.577
904.439
905.577
908.974
914.566
922.249
931.868
943.219
956.04
970.022
984.806
1000
1000
984.806
970.022
956.04
943.219
931.868
922.249
914.566
908.974
905.577
904.439
905.577
908.974
914.566
922.249
931.868
943.219
956.04
970.022
984.806
1000
1000
984.806
970.022
956.04
943.219
931.868
922.249
914.566
908.974
905.577
904.439
905.577
908.974
914.566
922.249
931.868
943.219
956.04
970.022
984.806
1000
1000
984.806
970.022
956.04
943.219
931.868
922.249
914.566
908.974
905.577
904.439
905.577
908.974
914.566
922.249
931.868
943.219
956.04
970.022
984.806
1000
1000
984.806
970.022
956.04
943.219
931.868
922.249
914.566
908.974
905.577
904.439
905.577
908.974
914.566
922.249
931.868
943.219
956.04
970.022
984.806
1000
1000
984.806
970.022
956.04
943.219
931.868
922.249
914.566
908.974
905.577
904.439
905.577
908.974
914.566
922.249
931.868
943.219
956.04
970.022
984.806
1000
1000
984.806
970.022
956.04
943.219
931.868
922.249
914.566
908.974
905.577
904.439
905.577
908.974
914.566
922.249
931.868
943.219
956.04
970.022
984.806
1000
1000
984.806
970.022
956.04
943.219
931.868
922.249
914.566
908.974
905.577
904.439
905.577
908.974
914.566
922.249
931.868
943.219
956.04
970.022
984.806
1000
1000
984.806
970.022
956.04
943.219
931.868
922.249
914.566
908.974
905.577
904.439
905.577
908.974
914.566
922.249
931.868
943.219
956.04
970.022
984.806
1000
1000
984.806
970.022
956.04
943.219
931.868
922.249
914.566
908.974
905.577
904.439
905.577
908.974
914.566
922.249
931.868
943.219
956.04
970.022
984.806
1000
1000
984.806
970.022
956.04
943.219
931.868
922.249
914.566
908.974
905.577
904.439
905.577
908.974
914.566
922.249
931.868
943.219
956.04
970.022
984.806
1000
1000
984.806
970.022
956.04
943.219
931.868
922.249
914.566
908.974
905.577
904.439
905.577
908.974
914.566
922.249
931.868
943.219
956.04
970.022
984.806
1000
1000
984.806
970.022
956.04
943.219
931.868
922.249
914.566
908.974
905.577
904.439
905.577
908.974
914.566
922.249
931.868
943.219
956.04
970.022
984.806
1000
1000
984.806
970.022
956.04
943.219
931.868
922.249
914.566
908.974
905.577
904.439
905.577
908.974
914.566
922.249
931.868
943.219
956.04
970.022
984.806
1000
1000
984.806
970.022
956.04
943.219
931.868
922.249
914.566
908.974
905.577
904.439
905.577
908.974
914.566
922.249
931.868
943.219
956.04
970.022
984.806
1000
1000
984.806
970.022
956.04
943.219
931.868
922.249
914.566
908.974
905.577
904.439
905.577
908.974
914.566
922.249
931.868
943.219
956.04
970.022
984.806
1000
1000
984.806
970.022
956.04
943.219
931.868
922.249
914.566
908.974
905.577
904.439
905.577
908.974
914.566
922.249
931.868
943.219
956.04
970.022
984.806
1000
1000
984.806
970.022
956.04
943.219
931.868
922.249
914.566
908.974
905.577
904.439
905.577
908.974
914.566
922.249
931.868
943.219
956.04
970.022
984.806
1000
1000
984.806
970.022
956.04
943.219
931.868
922.249
914.566
908.974
905.577
904.439
905.577
908.974
914.566
922.249
931.868
943.219
956.04
970.022
984.806
1000
1000
980.902
962.333
944.795
928.741
914.559
902.564
893.004
886.056
881.841
880.429
881.841
886.056
893.004
902.564
914.559
928.741
944.795
962.333
980.902
1000
1000
980.902
962.333
944.795
928.741
914.559
902.564
893.004
886.056
881.841
880.429
881.841
886.056
893.004
902.564
914.559
928.741
944.795
962.333
980.902
1000
1000
980.902
962.333
944.795
928.741
914.559
902.564
893.004
886.056
881.841
880.429
881.841
886.056
893.004
902.564
914.559
928.741
944.795
962.333
980.902
1000
1000
980.902
962.333
944.795
928.741
914.559
902.564
893.004
886.056
881.841
880.429
881.841
886.056
893.004
902.564
914.559
928.741
944.795
962.333
980.902
1000
1000
980.902
962.333
944.795
928.741
914.559
902.564
893.004
886.056
881.841
880.429
881.841
886.056
893.004