# vtk DataFile Version 3.0
ParaView Output
ASCII
DATASET STRUCTURED_GRID
DIMENSIONS 5 5 1
POINTS 25 double
0 0 0
1 0 0
2 0 0
3 0 0
4 0 0
0 1 0
-1174.48 -1174.48 0
48.4551 -108.031 0
34.2542 19.7229 0
4 1 0
0 2 0
-108.031 48.4551 0
363.505 363.505 0
-2.22572 37.3241 0
4 2 0
0 3 0
19.7229 34.2542 0
37.3241 -2.22572 0
-111.36 -111.36 0
4 3 0
0 4 0
1 4 0
2 4 0
3 4 0
4 4 0

POINT_DATA 25
SCALARS Temperature double
LOOKUP_TABLE default
150
100
100
100
50
200
-11659.4
-10948.4
930.915
0
200
-16746.1
-9943.26
-1479.18
0
200
16487.9
-600.172
-170271
0
350
500
500
500
250
