# vtk DataFile Version 3.0
ParaView Output
ASCII
DATASET STRUCTURED_GRID
DIMENSIONS 5 5 1
POINTS 25 double
0 0 0
1 0 0
2 0 0
3 0 0
4 0 0
0 1 0
1 1 0
2 1 0
3 1 0
4 1 0
0 2 0
1 2 0
2 2 0
3 2 0
4 2 0
0 3 0
1 3 0
2 3 0
3 3 0
4 3 0
0 4 0
1 4 0
2 4 0
3 4 0
4 4 0

POINT_DATA 25
SCALARS Temperature double
LOOKUP_TABLE default
150
100
100
100
50
200
164.286
139.286
92.8571
0
200
217.857
200
132.143
0
200
307.143
310.714
235.714
0
350
500
500
500
250
