# vtk DataFile Version 3.0 
vtk output 
ASCII 
DATASET UNSTRUCTURED_GRID 
POINTS 961 double
0 0 0
0.0333333 0 0
0.0666667 0 0
0.1 0 0
0.133333 0 0
0.166667 0 0
0.2 0 0
0.233333 0 0
0.266667 0 0
0.3 0 0
0.333333 0 0
0.366667 0 0
0.4 0 0
0.433333 0 0
0.466667 0 0
0.5 0 0
0.533333 0 0
0.566667 0 0
0.6 0 0
0.633333 0 0
0.666667 0 0
0.7 0 0
0.733333 0 0
0.766667 0 0
0.8 0 0
0.833333 0 0
0.866667 0 0
0.9 0 0
0.933333 0 0
0.966667 0 0
1 0 0
0 0.0333333 0
0.033333 0.0333331 0
0.0666661 0.0333329 0
0.0999993 0.0333327 0
0.133332 0.0333326 0
0.166666 0.0333325 0
0.199999 0.0333324 0
0.233332 0.0333323 0
0.266665 0.0333323 0
0.299999 0.0333323 0
0.333332 0.0333323 0
0.366665 0.0333323 0
0.399999 0.0333323 0
0.433332 0.0333324 0
0.466666 0.0333324 0
0.499999 0.0333325 0
0.533332 0.0333325 0
0.566666 0.0333326 0
0.599999 0.0333327 0
0.633333 0.0333328 0
0.666666 0.0333328 0
0.699999 0.0333329 0
0.733333 0.0333329 0
0.766666 0.033333 0
0.8 0.0333331 0
0.833333 0.0333331 0
0.866666 0.0333332 0
0.9 0.0333332 0
0.933333 0.0333333 0
0.966667 0.0333333 0
1 0.0333333 0
0 0.0666667 0
0.0333328 0.0666662 0
0.0666657 0.0666659 0
0.0999986 0.0666655 0
0.133332 0.0666652 0
0.166665 0.066665 0
0.199998 0.0666649 0
0.233331 0.0666648 0
0.266664 0.0666647 0
0.299998 0.0666647 0
0.333331 0.0666647 0
0.366664 0.0666647 0
0.399998 0.0666648 0
0.433331 0.0666649 0
0.466665 0.066665 0
0.499998 0.0666651 0
0.533332 0.0666652 0
0.566665 0.0666653 0
0.599999 0.0666655 0
0.633332 0.0666656 0
0.666665 0.0666657 0
0.699999 0.0666658 0
0.733332 0.066666 0
0.766666 0.0666661 0
0.799999 0.0666662 0
0.833333 0.0666663 0
0.866666 0.0666664 0
0.9 0.0666665 0
0.933333 0.0666665 0
0.966667 0.0666666 0
1 0.0666667 0
0 0.1 0
0.0333326 0.0999994 0
0.0666653 0.0999989 0
0.099998 0.0999984 0
0.133331 0.099998 0
0.166664 0.0999977 0
0.199997 0.0999975 0
0.23333 0.0999974 0
0.266663 0.0999973 0
0.299997 0.0999973 0
0.33333 0.0999973 0
0.366663 0.0999973 0
0.399997 0.0999974 0
0.43333 0.0999971 0
0.466663 0.0999973 0
0.499997 0.0999975 0
0.53333 0.0999976 0
0.566664 0.0999978 0
0.599998 0.0999981 0
0.633331 0.0999983 0
0.666665 0.0999985 0
0.699998 0.0999987 0
0.733332 0.0999989 0
0.766665 0.099999 0
0.799999 0.0999992 0
0.833333 0.0999994 0
0.866666 0.0999995 0
0.9 0.0999997 0
0.933333 0.0999998 0
0.966667 0.0999999 0
1 0.1 0
0 0.133333 0
0.0333322 0.133332 0
0.0666647 0.133332 0
0.0999972 0.133331 0
0.13333 0.133331 0
0.166663 0.13333 0
0.199996 0.13333 0
0.233329 0.13333 0
0.266662 0.13333 0
0.299995 0.133329 0
0.333329 0.133329 0
0.366662 0.13333 0
0.399995 0.13333 0
0.433329 0.13333 0
0.466663 0.13333 0
0.499996 0.13333 0
0.53333 0.13333 0
0.566663 0.133331 0
0.599997 0.133331 0
0.633331 0.133331 0
0.666664 0.133331 0
0.699998 0.133332 0
0.733332 0.133332 0
0.766665 0.133332 0
0.799999 0.133332 0
0.833332 0.133333 0
0.866666 0.133333 0
0.9 0.133333 0
0.933333 0.133333 0
0.966667 0.133333 0
1 0.133333 0
0 0.166667 0
0.0333321 0.166666 0
0.0666644 0.166665 0
0.0999968 0.166664 0
0.133329 0.166663 0
0.166662 0.166663 0
0.199995 0.166663 0
0.233328 0.166662 0
0.266661 0.166662 0
0.299995 0.166662 0
0.333328 0.166662 0
0.366661 0.166662 0
0.399995 0.166662 0
0.433328 0.166663 0
0.466662 0.166663 0
0.499996 0.166663 0
0.533329 0.166663 0
0.566663 0.166664 0
0.599997 0.166664 0
0.63333 0.166664 0
0.666664 0.166665 0
0.699998 0.166665 0
0.733331 0.166665 0
0.766665 0.166665 0
0.799999 0.166666 0
0.833332 0.166666 0
0.866666 0.166666 0
0.899999 0.166666 0
0.933333 0.166666 0
0.966666 0.166667 0
1 0.166667 0
0 0.2 0
0.0333317 0.199999 0
0.0666637 0.199998 0
0.099996 0.199997 0
0.133328 0.199996 0
0.166661 0.199995 0
0.199994 0.199995 0
0.233327 0.199995 0
0.26666 0.199994 0
0.299993 0.199994 0
0.333326 0.199994 0
0.36666 0.199994 0
0.399993 0.199995 0
0.433327 0.199995 0
0.466661 0.199995 0
0.499995 0.199996 0
0.533328 0.199996 0
0.566662 0.199996 0
0.599996 0.199997 0
0.63333 0.199997 0
0.666663 0.199997 0
0.699997 0.199998 0
0.733331 0.199998 0
0.766665 0.199998 0
0.799998 0.199999 0
0.833332 0.199999 0
0.866666 0.199999 0
0.899999 0.199999 0
0.933333 0.2 0
0.966666 0.2 0
1 0.2 0
0 0.233333 0
0.0333317 0.233332 0
0.0666636 0.233331 0
0.0999957 0.23333 0
0.133328 0.233329 0
0.166661 0.233328 0
0.199993 0.233328 0
0.233326 0.233328 0
0.266659 0.233327 0
0.299993 0.233327 0
0.333326 0.233327 0
0.366659 0.233327 0
0.399993 0.233328 0
0.433327 0.233328 0
0.46666 0.233328 0
0.499994 0.233329 0
0.533328 0.233329 0
0.566662 0.233329 0
0.599996 0.23333 0
0.633329 0.23333 0
0.666663 0.23333 0
0.699997 0.233331 0
0.733331 0.233331 0
0.766664 0.233332 0
0.799998 0.233332 0
0.833332 0.233332 0
0.866666 0.233332 0
0.899999 0.233333 0
0.933333 0.233333 0
0.966666 0.233333 0
1 0.233333 0
0 0.266667 0
0.0333316 0.266665 0
0.0666635 0.266664 0
0.0999956 0.266663 0
0.133328 0.266662 0
0.16666 0.266662 0
0.199993 0.266661 0
0.233326 0.266661 0
0.266658 0.26666 0
0.299991 0.26666 0
0.333325 0.26666 0
0.366658 0.26666 0
0.399992 0.26666 0
0.433325 0.26666 0
0.466659 0.266661 0
0.499993 0.266661 0
0.533327 0.266661 0
0.566661 0.266662 0
0.599995 0.266662 0
0.633329 0.266663 0
0.666662 0.266663 0
0.699996 0.266664 0
0.73333 0.266664 0
0.766664 0.266665 0
0.799998 0.266665 0
0.833332 0.266665 0
0.866665 0.266666 0
0.899999 0.266666 0
0.933333 0.266666 0
0.966666 0.266666 0
1 0.266667 0
0 0.3 0
0.0333313 0.299998 0
0.0666629 0.299997 0
0.0999948 0.299996 0
0.133327 0.299995 0
0.166659 0.299994 0
0.199992 0.299994 0
0.233325 0.299993 0
0.266658 0.299993 0
0.299991 0.299993 0
0.333324 0.299993 0
0.366658 0.299993 0
0.399992 0.299993 0
0.433325 0.299993 0
0.466659 0.299994 0
0.499993 0.299994 0
0.533327 0.299995 0
0.566661 0.299995 0
0.599995 0.299996 0
0.633328 0.299996 0
0.666662 0.299997 0
0.699996 0.299997 0
0.73333 0.299997 0
0.766664 0.299998 0
0.799998 0.299998 0
0.833332 0.299999 0
0.866665 0.299999 0
0.899999 0.299999 0
0.933333 0.3 0
0.966666 0.3 0
1 0.3 0
0 0.333333 0
0.0333313 0.333332 0
0.0666629 0.33333 0
0.0999948 0.333329 0
0.133327 0.333328 0
0.166659 0.333327 0
0.199992 0.333327 0
0.233325 0.333326 0
0.266658 0.333326 0
0.299991 0.333326 0
0.333325 0.333326 0
0.366658 0.333326 0
0.399992 0.333327 0
0.433325 0.333327 0
0.466659 0.333327 0
0.499993 0.333328 0
0.533327 0.333328 0
0.566661 0.333328 0
0.599995 0.333329 0
0.633328 0.333329 0
0.666662 0.333329 0
0.699996 0.33333 0
0.73333 0.33333 0
0.766664 0.333331 0
0.799998 0.333331 0
0.833331 0.333332 0
0.866665 0.333332 0
0.899999 0.333332 0
0.933333 0.333333 0
0.966666 0.333333 0
1 0.333333 0
0 0.366667 0
0.033331 0.366665 0
0.0666624 0.366663 0
0.0999941 0.366662 0
0.133326 0.366661 0
0.166658 0.36666 0
0.199991 0.366659 0
0.233324 0.366659 0
0.266657 0.366659 0
0.29999 0.366659 0
0.333323 0.366659 0
0.366657 0.366659 0
0.39999 0.366659 0
0.433324 0.366659 0
0.466658 0.36666 0
0.499992 0.36666 0
0.533326 0.366661 0
0.56666 0.366661 0
0.599994 0.366662 0
0.633328 0.366662 0
0.666662 0.366663 0
0.699996 0.366663 0
0.73333 0.366664 0
0.766664 0.366664 0
0.799998 0.366665 0
0.833331 0.366665 0
0.866665 0.366665 0
0.899999 0.366666 0
0.933333 0.366666 0
0.966666 0.366666 0
1 0.366667 0
0 0.4 0
0.0333311 0.399998 0
0.0666625 0.399997 0
0.0999943 0.399995 0
0.133326 0.399994 0
0.166659 0.399994 0
0.199991 0.399993 0
0.233324 0.399992 0
0.266657 0.399992 0
0.29999 0.399992 0
0.333324 0.399992 0
0.366657 0.399992 0
0.399991 0.399992 0
0.433325 0.399993 0
0.466658 0.399993 0
0.499992 0.399994 0
0.533326 0.399994 0
0.56666 0.399995 0
0.599994 0.399995 0
0.633328 0.399996 0
0.666662 0.399996 0
0.699996 0.399997 0
0.73333 0.399997 0
0.766664 0.399998 0
0.799998 0.399998 0
0.833331 0.399998 0
0.866665 0.399999 0
0.899999 0.399999 0
0.933333 0.399999 0
0.966666 0.4 0
1 0.4 0
0 0.433333 0
0.0333312 0.433332 0
0.0666627 0.43333 0
0.0999937 0.433328 0
0.133326 0.433327 0
0.166658 0.433326 0
0.19999 0.433325 0
0.233323 0.433325 0
0.266656 0.433325 0
0.299989 0.433325 0
0.333323 0.433325 0
0.366656 0.433325 0
0.39999 0.433325 0
0.433324 0.433325 0
0.466657 0.433326 0
0.499991 0.433326 0
0.533325 0.433327 0
0.566659 0.433327 0
0.599993 0.433328 0
0.633327 0.433329 0
0.666661 0.433329 0
0.699996 0.43333 0
0.73333 0.43333 0
0.766663 0.433331 0
0.799997 0.433331 0
0.833331 0.433332 0
0.866665 0.433332 0
0.899999 0.433332 0
0.933333 0.433333 0
0.966666 0.433333 0
1 0.433333 0
0 0.466667 0
0.033331 0.466665 0
0.0666623 0.466663 0
0.099994 0.466662 0
0.133326 0.466661 0
0.166658 0.46666 0
0.199991 0.466659 0
0.233324 0.466659 0
0.266657 0.466658 0
0.29999 0.466658 0
0.333323 0.466658 0
0.366657 0.466659 0
0.39999 0.466659 0
0.433324 0.466659 0
0.466658 0.46666 0
0.499992 0.46666 0
0.533326 0.466661 0
0.56666 0.466661 0
0.599994 0.466662 0
0.633328 0.466662 0
0.666662 0.466663 0
0.699996 0.466663 0
0.73333 0.466664 0
0.766664 0.466664 0
0.799998 0.466665 0
0.833331 0.466665 0
0.866665 0.466665 0
0.899999 0.466666 0
0.933333 0.466666 0
0.966666 0.466666 0
1 0.466667 0
0 0.5 0
0.0333312 0.499998 0
0.0666626 0.499997 0
0.0999944 0.499995 0
0.133326 0.499994 0
0.166659 0.499994 0
0.199991 0.499993 0
0.233324 0.499993 0
0.266657 0.499992 0
0.29999 0.499992 0
0.333324 0.499992 0
0.366657 0.499992 0
0.399991 0.499993 0
0.433325 0.499993 0
0.466659 0.499993 0
0.499991 0.499993 0
0.533325 0.499993 0
0.566659 0.499994 0
0.599993 0.499995 0
0.633327 0.499995 0
0.666661 0.499996 0
0.699995 0.499996 0
0.733329 0.499997 0
0.766663 0.499997 0
0.799997 0.499998 0
0.833331 0.499998 0
0.866665 0.499999 0
0.899999 0.499999 0
0.933333 0.499999 0
0.966666 0.5 0
1 0.5 0
0 0.533333 0
0.033331 0.533331 0
0.0666623 0.53333 0
0.099994 0.533328 0
0.133326 0.533327 0
0.166658 0.533326 0
0.199991 0.533326 0
0.233324 0.533325 0
0.266657 0.533325 0
0.29999 0.533325 0
0.333323 0.533325 0
0.366657 0.533325 0
0.39999 0.533325 0
0.433324 0.533326 0
0.466658 0.533326 0
0.499992 0.533327 0
0.533326 0.533327 0
0.56666 0.533328 0
0.599994 0.533328 0
0.633328 0.533329 0
0.666662 0.533329 0
0.699996 0.53333 0
0.73333 0.53333 0
0.766664 0.533331 0
0.799998 0.533331 0
0.833331 0.533332 0
0.866665 0.533332 0
0.899999 0.533332 0
0.933333 0.533333 0
0.966666 0.533333 0
1 0.533333 0
0 0.566667 0
0.0333312 0.566665 0
0.0666627 0.566663 0
0.0999945 0.566662 0
0.133327 0.566661 0
0.166659 0.56666 0
0.199992 0.56666 0
0.233324 0.566659 0
0.266657 0.566659 0
0.299991 0.566659 0
0.333324 0.566659 0
0.366658 0.566659 0
0.399991 0.566659 0
0.433325 0.56666 0
0.466659 0.56666 0
0.499993 0.566661 0
0.533326 0.566661 0
0.56666 0.566662 0
0.599994 0.566662 0
0.633328 0.566663 0
0.666662 0.566663 0
0.699996 0.566664 0
0.73333 0.566664 0
0.766664 0.566664 0
0.799998 0.566665 0
0.833332 0.566665 0
0.866665 0.566666 0
0.899999 0.566666 0
0.933333 0.566666 0
0.966666 0.566666 0
1 0.566667 0
0 0.6 0
0.0333311 0.599998 0
0.0666625 0.599997 0
0.0999942 0.599995 0
0.133326 0.599994 0
0.166659 0.599993 0
0.199991 0.599993 0
0.233324 0.599992 0
0.266657 0.599992 0
0.29999 0.599992 0
0.333324 0.599992 0
0.366657 0.599992 0
0.399991 0.599992 0
0.433325 0.599993 0
0.466658 0.599993 0
0.499992 0.599994 0
0.533326 0.599994 0
0.56666 0.599995 0
0.599994 0.599995 0
0.633328 0.599996 0
0.666662 0.599996 0
0.699996 0.599997 0
0.73333 0.599997 0
0.766664 0.599998 0
0.799998 0.599998 0
0.833331 0.599998 0
0.866665 0.599999 0
0.899999 0.599999 0
0.933333 0.599999 0
0.966666 0.6 0
1 0.6 0
0 0.633333 0
0.0333313 0.633332 0
0.0666629 0.63333 0
0.0999948 0.633329 0
0.133327 0.633328 0
0.166659 0.633327 0
0.199992 0.633327 0
0.233325 0.633327 0
0.266658 0.633326 0
0.299991 0.633326 0
0.333325 0.633326 0
0.366658 0.633326 0
0.399992 0.633327 0
0.433325 0.633327 0
0.466659 0.633327 0
0.499993 0.633328 0
0.533327 0.633328 0
0.566661 0.633329 0
0.599995 0.633329 0
0.633329 0.63333 0
0.666663 0.63333 0
0.699996 0.63333 0
0.73333 0.633331 0
0.766664 0.633331 0
0.799998 0.633332 0
0.833332 0.633332 0
0.866665 0.633332 0
0.899999 0.633333 0
0.933333 0.633333 0
0.966666 0.633333 0
1 0.633333 0
0 0.666667 0
0.0333316 0.666665 0
0.0666634 0.666664 0
0.0999955 0.666663 0
0.133328 0.666662 0
0.16666 0.666661 0
0.199993 0.666661 0
0.233326 0.666661 0
0.266659 0.66666 0
0.299992 0.66666 0
0.333324 0.666659 0
0.366658 0.66666 0
0.399992 0.66666 0
0.433325 0.66666 0
0.466659 0.666661 0
0.499993 0.666661 0
0.533327 0.666661 0
0.566661 0.666662 0
0.599995 0.666662 0
0.633329 0.666663 0
0.666662 0.666663 0
0.699996 0.666664 0
0.73333 0.666664 0
0.766664 0.666665 0
0.799998 0.666665 0
0.833332 0.666665 0
0.866665 0.666666 0
0.899999 0.666666 0
0.933333 0.666666 0
0.966666 0.666666 0
1 0.666667 0
0 0.7 0
0.0333315 0.699999 0
0.0666634 0.699997 0
0.0999954 0.699996 0
0.133328 0.699995 0
0.16666 0.699995 0
0.199993 0.699994 0
0.233326 0.699994 0
0.266659 0.699994 0
0.299992 0.699994 0
0.333326 0.699994 0
0.366659 0.699994 0
0.399993 0.699994 0
0.433326 0.699994 0
0.46666 0.699995 0
0.499994 0.699995 0
0.533328 0.699995 0
0.566661 0.699996 0
0.599995 0.699996 0
0.633329 0.699997 0
0.666663 0.699997 0
0.699997 0.699997 0
0.733331 0.699998 0
0.766664 0.699998 0
0.799998 0.699998 0
0.833332 0.699999 0
0.866666 0.699999 0
0.899999 0.699999 0
0.933333 0.7 0
0.966666 0.7 0
1 0.7 0
0 0.733333 0
0.0333318 0.733332 0
0.0666639 0.733331 0
0.0999961 0.73333 0
0.133329 0.733329 0
0.166661 0.733329 0
0.199994 0.733328 0
0.233327 0.733328 0
0.26666 0.733328 0
0.299993 0.733328 0
0.333327 0.733328 0
0.36666 0.733328 0
0.399994 0.733328 0
0.433327 0.733328 0
0.466661 0.733329 0
0.499995 0.733329 0
0.533329 0.733329 0
0.566662 0.73333 0
0.599996 0.73333 0
0.63333 0.73333 0
0.666664 0.733331 0
0.699997 0.733331 0
0.733331 0.733331 0
0.766664 0.733331 0
0.799998 0.733332 0
0.833332 0.733332 0
0.866666 0.733332 0
0.899999 0.733333 0
0.933333 0.733333 0
0.966666 0.733333 0
1 0.733333 0
0 0.766667 0
0.0333318 0.766665 0
0.0666639 0.766664 0
0.0999962 0.766664 0
0.133329 0.766663 0
0.166661 0.766662 0
0.199994 0.766662 0
0.233327 0.766662 0
0.26666 0.766662 0
0.299994 0.766661 0
0.333327 0.766661 0
0.36666 0.766662 0
0.399994 0.766662 0
0.433328 0.766662 0
0.466661 0.766662 0
0.499995 0.766663 0
0.533329 0.766663 0
0.566662 0.766663 0
0.599996 0.766664 0
0.63333 0.766664 0
0.666664 0.766664 0
0.699997 0.766665 0
0.733331 0.766665 0
0.766665 0.766665 0
0.799998 0.766665 0
0.833332 0.766666 0
0.866666 0.766666 0
0.899999 0.766666 0
0.933333 0.766666 0
0.966666 0.766667 0
1 0.766667 0
0 0.8 0
0.0333321 0.799999 0
0.0666644 0.799998 0
0.0999969 0.799997 0
0.13333 0.799997 0
0.166662 0.799996 0
0.199995 0.799996 0
0.233328 0.799996 0
0.266661 0.799996 0
0.299995 0.799996 0
0.333328 0.799996 0
0.366662 0.799996 0
0.399995 0.799996 0
0.433329 0.799996 0
0.466662 0.799996 0
0.499996 0.799997 0
0.53333 0.799997 0
0.566663 0.799997 0
0.599997 0.799997 0
0.633331 0.799998 0
0.666664 0.799998 0
0.699998 0.799998 0
0.733332 0.799999 0
0.766665 0.799999 0
0.799999 0.799999 0
0.833332 0.799999 0
0.866666 0.799999 0
0.899999 0.8 0
0.933333 0.8 0
0.966667 0.8 0
1 0.8 0
0 0.833333 0
0.0333324 0.833333 0
0.0666649 0.833332 0
0.0999976 0.833331 0
0.13333 0.833331 0
0.166663 0.83333 0
0.199996 0.83333 0
0.233329 0.83333 0
0.266662 0.833329 0
0.299995 0.833329 0
0.333329 0.833329 0
0.366662 0.83333 0
0.399995 0.83333 0
0.433329 0.83333 0
0.466663 0.83333 0
0.499996 0.83333 0
0.53333 0.83333 0
0.566663 0.833331 0
0.599997 0.833331 0
0.633331 0.833331 0
0.666664 0.833331 0
0.699998 0.833332 0
0.733332 0.833332 0
0.766665 0.833332 0
0.799999 0.833332 0
0.833332 0.833333 0
0.866666 0.833333 0
0.9 0.833333 0
0.933333 0.833333 0
0.966667 0.833333 0
1 0.833333 0
0 0.866667 0
0.0333325 0.866666 0
0.0666651 0.866665 0
0.0999978 0.866665 0
0.133331 0.866665 0
0.166664 0.866664 0
0.199997 0.866664 0
0.23333 0.866664 0
0.266663 0.866664 0
0.299996 0.866664 0
0.33333 0.866664 0
0.366663 0.866664 0
0.399997 0.866664 0
0.43333 0.866664 0
0.466664 0.866664 0
0.499997 0.866664 0
0.533331 0.866665 0
0.566664 0.866665 0
0.599998 0.866665 0
0.633331 0.866665 0
0.666665 0.866665 0
0.699999 0.866665 0
0.733332 0.866666 0
0.766666 0.866666 0
0.799999 0.866666 0
0.833333 0.866666 0
0.866666 0.866666 0
0.9 0.866666 0
0.933333 0.866666 0
0.966667 0.866667 0
1 0.866667 0
0 0.9 0
0.0333327 0.9 0
0.0666655 0.899999 0
0.0999985 0.899999 0
0.133331 0.899998 0
0.166665 0.899998 0
0.199998 0.899998 0
0.233331 0.899998 0
0.266664 0.899998 0
0.299997 0.899998 0
0.333331 0.899998 0
0.366664 0.899998 0
0.399998 0.899998 0
0.433331 0.899998 0
0.466665 0.899998 0
0.499998 0.899998 0
0.533331 0.899998 0
0.566665 0.899998 0
0.599998 0.899999 0
0.633332 0.899999 0
0.666665 0.899999 0
0.699999 0.899999 0
0.733332 0.899999 0
0.766666 0.899999 0
0.799999 0.899999 0
0.833333 0.9 0
0.866666 0.9 0
0.9 0.9 0
0.933333 0.9 0
0.966667 0.9 0
1 0.9 0
0 0.933333 0
0.0333329 0.933333 0
0.0666658 0.933333 0
0.0999989 0.933332 0
0.133332 0.933332 0
0.166665 0.933332 0
0.199998 0.933332 0
0.233332 0.933332 0
0.266665 0.933332 0
0.299998 0.933332 0
0.333331 0.933332 0
0.366665 0.933332 0
0.399998 0.933332 0
0.433332 0.933332 0
0.466665 0.933332 0
0.499999 0.933332 0
0.533332 0.933332 0
0.566665 0.933332 0
0.599999 0.933332 0
0.633332 0.933333 0
0.666666 0.933333 0
0.699999 0.933333 0
0.733333 0.933333 0
0.766666 0.933333 0
0.8 0.933333 0
0.833333 0.933333 0
0.866666 0.933333 0
0.9 0.933333 0
0.933333 0.933333 0
0.966667 0.933333 0
1 0.933333 0
0 0.966667 0
0.0333331 0.966666 0
0.0666663 0.966666 0
0.0999995 0.966666 0
0.133333 0.966666 0
0.166666 0.966666 0
0.199999 0.966666 0
0.233332 0.966666 0
0.266666 0.966666 0
0.299999 0.966666 0
0.333332 0.966666 0
0.366666 0.966666 0
0.399999 0.966666 0
0.433333 0.966666 0
0.466666 0.966666 0
0.499999 0.966666 0
0.533333 0.966666 0
0.566666 0.966666 0
0.599999 0.966666 0
0.633333 0.966666 0
0.666666 0.966666 0
0.7 0.966666 0
0.733333 0.966666 0
0.766666 0.966666 0
0.8 0.966667 0
0.833333 0.966667 0
0.866667 0.966667 0
0.9 0.966667 0
0.933333 0.966667 0
0.966667 0.966667 0
1 0.966667 0
0 1 0
0.0333333 1 0
0.0666667 1 0
0.1 1 0
0.133333 1 0
0.166667 1 0
0.2 1 0
0.233333 1 0
0.266667 1 0
0.3 1 0
0.333333 1 0
0.366667 1 0
0.4 1 0
0.433333 1 0
0.466667 1 0
0.5 1 0
0.533333 1 0
0.566667 1 0
0.6 1 0
0.633333 1 0
0.666667 1 0
0.7 1 0
0.733333 1 0
0.766667 1 0
0.8 1 0
0.833333 1 0
0.866667 1 0
0.9 1 0
0.933333 1 0
0.966667 1 0
1 1 0

POINT_DATA 961
SCALARS Temperature double 1
LOOKUP_TABLE default
0
0
0
0
0
0
0
0
0
0
0
0
0
0
0
0
0
0
0
0
0
0
0
0
0
0
0
0
0
0
250
0
0.608692
1.22438
1.85414
2.5053
3.18551
3.90291
4.66628
5.48519
6.37034
7.33375
8.38919
9.55272
10.8433
12.2838
13.9025
15.7344
17.8249
20.2335
23.0401
26.3564
30.3424
35.2377
41.4173
49.503
60.6004
76.8534
102.884
149.96
249.391
500
0
1.21041
2.43469
3.68691
4.98158
6.33387
7.7599
9.27702
10.9042
12.6625
14.5755
16.6703
18.9784
21.5367
24.3897
27.5916
31.2103
35.3319
40.0688
45.5707
52.043
59.7756
69.191
80.9285
95.9945
116.045
143.929
184.725
247.564
347.604
500
0
1.79827
3.61707
5.47725
7.40026
9.40852
11.5258
13.7777
16.1921
18.7998
21.6354
24.7383
28.1539
31.9354
36.1465
40.864
46.1832
52.2237
59.1391
67.1309
76.4695
87.526
100.822
117.111
137.501
163.658
198.093
244.521
307.969
393.462
500
0
2.36559
4.75808
7.20474
9.73365
12.3741
15.1571
18.1159
21.2867
24.7093
28.4281
32.4936
36.9634
41.9047
47.3968
53.535
60.435
68.2406
77.133
87.3444
99.1781
113.036
129.462
149.193
173.242
202.991
240.264
287.298
346.328
418.274
500
0
2.90604
5.84496
8.85006
11.9556
15.1972
18.6127
22.2422
26.1296
30.3225
34.8743
39.8446
45.3014
51.3232
58.0013
65.444
73.7812
83.1709
93.8079
105.936
119.862
135.98
154.795
176.955
203.285
234.8
272.674
318.079
371.773
433.306
500
0
3.41362
6.86564
10.3949
14.0414
17.8465
21.8541
26.1107
30.6667
35.5769
40.9018
46.709
53.0746
60.0853
67.8411
76.4585
86.075
96.8539
108.992
122.728
138.354
156.227
176.784
200.549
228.142
260.249
297.553
340.573
389.377
443.179
500
0
3.88288
7.80913
11.8227
15.9686
20.2935
24.8466
29.68
34.8498
40.4167
46.4473
53.0153
60.2028
68.1024
76.8194
86.4743
97.2063
109.178
122.578
137.632
154.6
173.791
195.562
220.316
248.485
280.502
316.717
357.284
401.982
450.032
500
0
4.30877
8.66537
13.1182
17.7167
22.5123
27.5588
32.913
38.6357
44.7927
51.4554
58.7019
66.6188
75.3022
84.8597
95.4127
107.098
120.072
134.512
150.62
168.623
188.776
211.359
236.666
264.983
296.556
331.529
369.862
411.236
454.967
500
0
4.68685
9.42539
14.2679
19.2677
24.4802
29.9631
35.7773
41.9875
48.6633
55.8797
63.7184
72.2685
81.6279
91.9049
103.219
115.702
129.501
144.779
161.712
180.495
201.331
224.433
250.005
278.224
309.209
342.98
379.401
418.133
458.599
500
0
5.0133
10.0816
15.2603
20.6062
26.1779
32.0363
38.2457
44.8738
51.9933
59.6819
68.0235
77.1088
87.0363
97.9131
109.856
122.99
137.452
153.389
170.956
190.312
211.621
235.038
260.697
288.698
319.078
351.781
386.63
423.296
461.295
500
0
5.2848
10.6272
16.0855
21.7189
27.5887
33.7585
40.2951
47.2687
54.7541
62.831
71.5847
81.1067
91.4953
102.856
115.3
128.949
143.929
160.371
178.409
198.178
219.804
243.399
269.048
296.795
326.623
358.437
392.04
427.128
463.284
500
0
5.49876
11.0572
16.7356
22.5953
28.6997
35.1142
41.9076
49.152
56.9236
65.3035
74.3779
84.2384
94.9826
106.714
119.541
133.578
148.943
165.755
184.133
204.187
226.018
249.706
275.301
302.81
332.183
363.302
395.966
429.892
464.713
500
0
5.65306
11.3673
17.2043
23.2271
29.5003
36.091
43.069
50.5078
58.4847
67.0815
76.3848
86.4864
97.4829
109.476
122.572
136.88
152.511
169.575
188.179
208.418
230.375
254.107
279.641
306.961
335.998
366.621
398.632
431.761
465.677
500
0
5.7462
11.5544
17.4873
23.6086
29.9837
36.6806
43.7699
51.3257
59.4261
68.1531
77.5938
87.8396
98.9867
111.136
124.391
138.858
154.645
171.856
190.589
210.932
232.956
256.706
282.195
309.395
338.226
368.553
400.178
432.842
466.234
500
0
5.77737
11.6171
17.582
23.7362
30.1454
36.8777
44.0042
51.5992
59.7407
68.5112
77.9976
88.2914
99.4886
111.689
124.997
139.517
155.356
172.614
191.39
211.766
233.811
257.565
283.038
310.197
338.959
369.188
400.685
433.196
466.416
500
0
5.74621
11.5545
17.4873
23.6086
29.9838
36.6807
43.77
51.3258
59.4262
68.1533
77.594
87.8398
98.9869
111.136
124.391
138.859
154.645
171.856
190.59
210.933
232.956
256.706
282.195
309.395
338.226
368.553
400.178
432.842
466.234
500
0
5.65308
11.3673
17.2044
23.2273
29.5006
36.0913
43.0694
50.5082
58.4852
67.082
76.3854
86.487
97.4835
109.477
122.573
136.881
152.512
169.576
188.179
208.419
230.375
254.107
279.641
306.961
335.998
366.621
398.632
431.761
465.677
500
0
5.49879
11.0573
16.7357
22.5955
28.6999
35.1145
41.9079
49.1523
56.924
65.304
74.3785
84.2391
94.9833
106.715
119.542
133.579
148.944
165.756
184.133
204.187
226.019
249.707
275.302
302.811
332.184
363.302
395.967
429.892
464.713
500
0
5.2849
10.6274
16.0857
21.7192
27.5891
33.759
40.2956
47.2693
54.7548
62.8318
71.5856
81.1077
91.4962
102.857
115.301
128.95
143.93
160.372
178.41
198.179
219.805
243.4
269.049
296.796
326.624
358.437
392.041
427.129
463.284
500
0
5.0134
10.0818
15.2606
20.6066
26.1783
32.0369
38.2463
44.8745
51.9941
59.6827
68.0243
77.1097
87.0373
97.9141
109.857
122.991
137.454
153.391
170.957
190.314
211.623
235.039
260.698
288.7
319.079
351.782
386.63
423.297
461.295
500
0
4.68695
9.42559
14.2682
19.2681
24.4807
29.9637
35.7779
41.9883
48.6642
55.8807
63.7194
72.2696
81.6292
91.9062
103.22
115.704
129.503
144.78
161.714
180.496
201.333
224.435
250.006
278.225
309.21
342.981
379.402
418.134
458.599
500
0
4.30887
8.66557
13.1185
17.7171
22.5128
27.5593
32.9137
38.6366
44.7938
51.4565
58.7031
66.6201
75.3036
84.8612
95.4143
107.1
120.074
134.514
150.621
168.624
188.778
211.361
236.667
264.984
296.557
331.53
369.863
411.237
454.967
500
0
3.88297
7.80933
11.823
15.9689
20.294
24.8472
29.6807
34.8506
40.4176
46.4483
53.0164
60.204
68.1037
76.8208
86.4757
97.2079
109.179
122.58
137.633
154.602
173.793
195.564
220.317
248.487
280.503
316.718
357.284
401.983
450.032
500
0
3.41374
6.86586
10.3952
14.0418
17.8471
21.8547
26.1115
30.6676
35.5779
40.9029
46.7102
53.0759
60.0866
67.8425
76.46
86.0765
96.8556
108.994
122.73
138.356
156.229
176.785
200.551
228.144
260.251
297.555
340.574
389.377
443.179
500
0
2.90614
5.84515
8.85035
11.956
15.1976
18.6132
22.2428
26.1302
30.3233
34.8752
39.8456
45.3025
51.3243
58.0025
65.4453
73.7826
83.1724
93.8095
105.937
119.864
135.982
154.797
176.957
203.286
234.801
272.675
318.081
371.773
433.307
500
0
2.36567
4.75824
7.20499
9.73399
12.3745
15.1576
18.1165
21.2873
24.71
28.4289
32.4945
36.9644
41.9057
47.398
53.5362
60.4363
68.242
77.1344
87.3458
99.1796
113.038
129.463
149.194
173.244
202.992
240.265
287.299
346.329
418.274
500
0
1.79833
3.6172
5.47744
7.40052
9.40885
11.5262
13.7782
16.1926
18.8004
21.6361
24.739
28.1547
31.9363
36.1474
40.8651
46.1843
52.2248
59.1402
67.1321
76.4707
87.5272
100.824
117.113
137.503
163.659
198.094
244.522
307.97
393.462
500
0
1.21045
2.43478
3.68705
4.98176
6.3341
7.76016
9.27732
10.9045
12.6629
14.5759
16.6708
18.9789
21.5373
24.3903
27.5923
31.211
35.3327
40.0696
45.5715
52.0439
59.7765
69.192
80.9295
95.9955
116.046
143.93
184.725
247.565
347.605
500
0
0.608722
1.22443
1.85422
2.50541
3.18565
3.90307
4.66645
5.48539
6.37057
7.334
8.38947
9.55301
10.8436
12.2842
13.9028
15.7348
17.8253
20.2339
23.0406
26.3568
30.3429
35.2382
41.4178
49.5036
60.601
76.854
102.885
149.96
249.391
500
0
0
0
0
0
0
0
0
0
0
0
0
0
0
0
0
0
0
0
0
0
0
0
0
0
0
0
0
0
0
250
