# vtk DataFile Version 3.0
ParaView Output
ASCII
DATASET STRUCTURED_GRID
DIMENSIONS 5 5 1
POINTS 25 double
0 0 0
1 0 0
2 0 0
3 0 0
4 0 0
0 1 0
0 0 0
0 0 0
0 0 0
4 1 0
0 2 0
0 0 0
0 0 0
0 0 0
4 2 0
0 3 0
0 0 0
0 0 0
0 0 0
4 3 0
0 4 0
1 4 0
2 4 0
3 4 0
4 4 0

POINT_DATA 25
SCALARS Temperature double
LOOKUP_TABLE default
260
500
500
500
250
20
0
0
0
0
20
0
0
0
0
20
0
0
0
0
60
100
100
100
50
