# vtk DataFile Version 3.0 
vtk output 
ASCII 
DATASET UNSTRUCTURED_GRID 
POINTS 400 double
-4.59243e-17 0 0
0.0526316 0 0
0.105263 0 0
0.157895 0 0
0.210526 0 0
0.263158 0 0
0.315789 0 0
0.368421 0 0
0.421053 0 0
0.473684 0 0
0.526316 0 0
0.578947 0 0
0.631579 0 0
0.684211 0 0
0.736842 0 0
0.789474 0 0
0.842105 0 0
0.894737 0 0
0.947368 0 0
0.75 0.25 0
-9.18485e-17 0 0
0.0511108 0.00456229 0
0.102178 0.00908098 0
0.153156 0.0135176 0
0.203997 0.0178438 0
0.254645 0.0220461 0
0.305036 0.0261303 0
0.355094 0.0301272 0
0.404722 0.0340989 0
0.453793 0.0381492 0
0.502133 0.0424406 0
0.549491 0.047224 0
0.595485 0.0528942 0
0.639487 0.0601009 0
0.68039 0.0699848 0
0.716056 0.0847325 0
0.741869 0.109015 0
0.746578 0.154154 0
0.698889 0.251521 0
0.5 0.5 0
-9.18485e-17 0 0
0.0496336 0.00916818 0
0.0991818 0.018244 0
0.148556 0.0271457 0
0.19766 0.0358116 0
0.246388 0.0442102 0
0.294616 0.052348 0
0.342197 0.0602796 0
0.388948 0.0681191 0
0.434632 0.0760574 0
0.478931 0.0843893 0
0.521401 0.0935611 0
0.561383 0.104252 0
0.597861 0.117524 0
0.629176 0.135106 0
0.652489 0.15993 0
0.662738 0.197174 0
0.650818 0.256081 0
0.60161 0.351929 0
0.5 0.5 0
-9.18485e-17 0 0
0.048242 0.0138664 0
0.0963598 0.0275813 0
0.144225 0.0410094 0
0.1917 0.0540469 0
0.238631 0.066635 0
0.284843 0.0787718 0
0.330131 0.090524 0
0.374241 0.102041 0
0.416855 0.113572 0
0.45756 0.125498 0
0.495797 0.138379 0
0.530785 0.153028 0
0.561397 0.170639 0
0.585965 0.192985 0
0.601987 0.222707 0
0.605775 0.26367 0
0.592347 0.321068 0
0.556732 0.400113 0
0.5 0.5 0
-9.18485e-17 0 0
0.0469744 0.0187161 0
0.0937905 0.0372053 0
0.140285 0.0552636 0
0.186282 0.0727315 0
0.231592 0.0895111 0
0.275996 0.10558 0
0.319242 0.121004 0
0.361029 0.135948 0
0.400988 0.150691 0
0.438658 0.165653 0
0.473442 0.181429 0
0.504562 0.198842 0
0.530978 0.219019 0
0.5513 0.243487 0
0.563718 0.274244 0
0.566029 0.31373 0
0.55606 0.364409 0
0.532973 0.427454 0
0.5 0.5 0
-9.18485e-17 0 0
0.0458652 0.0237929 0
0.0915431 0.0472601 0
0.136841 0.0701083 0
0.181554 0.0921045 0
0.225459 0.113098 0
0.268306 0.133034 0
0.309812 0.151965 0
0.349645 0.170055 0
0.387412 0.187591 0
0.42264 0.204995 0
0.454753 0.222842 0
0.483044 0.24189 0
0.506651 0.26311 0
0.524541 0.287699 0
0.535554 0.317052 0
0.538563 0.352596 0
0.532893 0.395384 0
0.5191 0.445295 0
0.5 0.5 0
-9.18485e-17 0 0
0.0449431 0.0291952 0
0.0896758 0.057934 0
0.133982 0.085805 0
0.177633 0.11248 0
0.220383 0.137742 0
0.261958 0.161493 0
0.302056 0.183765 0
0.340327 0.204716 0
0.376374 0.224624 0
0.409736 0.243892 0
0.439884 0.263053 0
0.466211 0.282768 0
0.488042 0.303831 0
0.50466 0.327149 0
0.515393 0.353668 0
0.519778 0.38422 0
0.517847 0.419236 0
0.510534 0.458341 0
0.5 0.5 0
-9.18485e-17 0 0
0.0442315 0.0350541 0
0.0882353 0.0694755 0
0.131778 0.102697 0
0.174614 0.134271 0
0.21648 0.163896 0
0.25709 0.191431 0
0.296125 0.216889 0
0.333233 0.240419 0
0.36802 0.262295 0
0.400048 0.282899 0
0.428837 0.30271 0
0.453875 0.322296 0
0.474644 0.342298 0
0.490663 0.363396 0
0.501582 0.38625 0
0.507306 0.411379 0
0.508185 0.439 0
0.50519 0.468833 0
0.5 0.5 0
-9.18485e-17 0 0
0.0437475 0.0415456 0
0.087256 0.0822166 0
0.13028 0.121238 0
0.172564 0.158009 0
0.213834 0.192139 0
0.253795 0.223447 0
0.292121 0.251939 0
0.328461 0.277776 0
0.362425 0.301239 0
0.393598 0.322698 0
0.421539 0.342592 0
0.445809 0.361409 0
0.465994 0.379668 0
0.481768 0.39789 0
0.492964 0.416557 0
0.499682 0.436047 0
0.502395 0.456551 0
0.502039 0.477991 0
0.5 0.5 0
-9.18485e-17 0 0
0.0435027 0.0489119 0
0.0867606 0.0966072 0
0.129523 0.142029 0
0.171529 0.184389 0
0.212499 0.223204 0
0.252133 0.258278 0
0.290106 0.289644 0
0.326063 0.317509 0
0.359622 0.342187 0
0.390378 0.364062 0
0.417915 0.383551 0
0.441827 0.401081 0
0.461757 0.417075 0
0.47745 0.431937 0
0.488825 0.44604 0
0.496061 0.459702 0
0.499676 0.473166 0
0.500572 0.48658 0
0.5 0.5 0
-9.18485e-17 0 0
0.0435027 0.0574947 0
0.0867606 0.113271 0
0.129523 0.165882 0
0.171529 0.214314 0
0.212499 0.258012 0
0.252133 0.296816 0
0.290106 0.330852 0
0.326063 0.360426 0
0.359622 0.385938 0
0.390378 0.407813 0
0.417915 0.426469 0
0.441827 0.442288 0
0.461757 0.455612 0
0.47745 0.466744 0
0.488825 0.475965 0
0.496061 0.483555 0
0.499676 0.489829 0
0.500572 0.495163 0
0.5 0.5 0
-9.18485e-17 0 0
0.0437475 0.0677958 0
0.087256 0.133101 0
0.13028 0.193915 0
0.172564 0.248972 0
0.213834 0.297713 0
0.253795 0.340121 0
0.292121 0.376521 0
0.328461 0.407408 0
0.362425 0.433324 0
0.393598 0.454783 0
0.421539 0.472224 0
0.445809 0.485991 0
0.465994 0.496342 0
0.481768 0.503464 0
0.492964 0.507519 0
0.499682 0.508724 0
0.502395 0.507435 0
0.502039 0.504241 0
0.5 0.5 0
-9.18485e-17 0 0
0.0442315 0.0805881 0
0.0882353 0.15742 0
0.131778 0.227705 0
0.174614 0.289946 0
0.21648 0.343747 0
0.25709 0.389435 0
0.296125 0.427704 0
0.333233 0.459359 0
0.36802 0.485168 0
0.400048 0.505772 0
0.428837 0.521651 0
0.453875 0.533111 0
0.474644 0.540302 0
0.490663 0.543248 0
0.501582 0.541925 0
0.507306 0.536387 0
0.508185 0.526944 0
0.50519 0.514367 0
0.5 0.5 0
-9.18485e-17 0 0
0.0449431 0.0971364 0
0.0896758 0.188287 0
0.133982 0.26954 0
0.177633 0.339359 0
0.220383 0.397894 0
0.261958 0.446169 0
0.302056 0.485499 0
0.340327 0.517158 0
0.376374 0.542217 0
0.409736 0.561486 0
0.439884 0.575495 0
0.466211 0.584501 0
0.488042 0.588507 0
0.50466 0.587301 0
0.515393 0.580546 0
0.519778 0.567954 0
0.517847 0.549589 0
0.510534 0.526282 0
0.5 0.5 0
-9.18485e-17 0 0
0.0458652 0.11967 0
0.0915431 0.229052 0
0.136841 0.322808 0
0.181554 0.400056 0
0.225459 0.462301 0
0.268306 0.511848 0
0.309812 0.550966 0
0.349645 0.581556 0
0.387412 0.605057 0
0.42264 0.62246 0
0.454753 0.634343 0
0.483044 0.640892 0
0.506651 0.641924 0
0.524541 0.636902 0
0.535554 0.625003 0
0.538563 0.605296 0
0.532893 0.577176 0
0.5191 0.541172 0
0.5 0.5 0
-9.18485e-17 0 0
0.0469744 0.152493 0
0.0937905 0.285442 0
0.140285 0.392584 0
0.186282 0.475756 0
0.231592 0.539406 0
0.275996 0.587954 0
0.319242 0.624963 0
0.361029 0.653043 0
0.400988 0.673993 0
0.438658 0.688955 0
0.473442 0.698524 0
0.504562 0.7028 0
0.530978 0.701393 0
0.5513 0.693381 0
0.563718 0.677268 0
0.566029 0.65105 0
0.55606 0.612646 0
0.532973 0.561231 0
0.5 0.5 0
-9.18485e-17 0 0
0.048242 0.204862 0
0.0963598 0.367638 0
0.144225 0.48633 0
0.1917 0.570979 0
0.238631 0.631611 0
0.284843 0.675601 0
0.330131 0.707888 0
0.374241 0.731659 0
0.416855 0.748917 0
0.45756 0.760844 0
0.495797 0.767997 0
0.530785 0.770392 0
0.561397 0.767469 0
0.585965 0.757961 0
0.601987 0.739639 0
0.605775 0.708991 0
0.592347 0.661125 0
0.556732 0.591108 0
0.5 0.5 0
-9.18485e-17 0 0
0.0496336 0.299315 0
0.0991818 0.493919 0
0.148556 0.61412 0
0.19766 0.690219 0
0.246388 0.740458 0
0.294616 0.774952 0
0.342197 0.799328 0
0.388948 0.816788 0
0.434632 0.829174 0
0.478931 0.837506 0
0.521401 0.84223 0
0.561383 0.8433 0
0.597861 0.840129 0
0.629176 0.831354 0
0.652489 0.814337 0
0.662738 0.784148 0
0.650818 0.731756 0
0.60161 0.642075 0
0.5 0.5 0
-9.18485e-17 0 0
0.0511108 0.498479 0
0.102178 0.694602 0
0.153156 0.78601 0
0.203997 0.83532 0
0.254645 0.86505 0
0.305036 0.884422 0
0.355094 0.897685 0
0.404722 0.906989 0
0.453793 0.913485 0
0.502133 0.917776 0
0.549491 0.920114 0
0.595485 0.920452 0
0.639487 0.918392 0
0.68039 0.912989 0
0.716056 0.902209 0
0.741869 0.881508 0
0.746578 0.839675 0
0.698889 0.745438 0
0.5 0.5 0
-4.59243e-17 0.5 0
0.0526316 1 0
0.105263 1 0
0.157895 1 0
0.210526 1 0
0.263158 1 0
0.315789 1 0
0.368421 1 0
0.421053 1 0
0.473684 1 0
0.526316 1 0
0.578947 1 0
0.631579 1 0
0.684211 1 0
0.736842 1 0
0.789474 1 0
0.842105 1 0
0.894737 1 0
0.947368 1 0
0.75 0.75 0

POINT_DATA 400
SCALARS Temperature double 1
LOOKUP_TABLE default
0
0
0
0
0
0
0
0
0
0
0
0
0
0
0
0
0
0
0
250
0
nan
nan
nan
nan
nan
nan
nan
nan
nan
nan
nan
nan
nan
nan
nan
nan
nan
nan
500
0
nan
nan
nan
nan
nan
nan
nan
nan
nan
nan
nan
nan
nan
nan
nan
nan
nan
nan
500
0
nan
nan
nan
nan
nan
nan
nan
nan
nan
nan
nan
nan
nan
nan
nan
nan
nan
nan
500
0
nan
nan
nan
nan
nan
nan
nan
nan
nan
nan
nan
nan
nan
nan
nan
nan
nan
nan
500
0
nan
nan
nan
nan
nan
nan
nan
nan
nan
nan
nan
nan
nan
nan
nan
nan
nan
nan
500
0
nan
nan
nan
nan
nan
nan
nan
nan
nan
nan
nan
nan
nan
nan
nan
nan
nan
nan
500
0
nan
nan
nan
nan
nan
nan
nan
nan
nan
nan
nan
nan
nan
nan
nan
nan
nan
nan
500
0
nan
nan
nan
nan
nan
nan
nan
nan
nan
nan
nan
nan
nan
nan
nan
nan
nan
nan
500
0
nan
nan
nan
nan
nan
nan
nan
nan
nan
nan
nan
nan
nan
nan
nan
nan
nan
nan
500
0
nan
nan
nan
nan
nan
nan
nan
nan
nan
nan
nan
nan
nan
nan
nan
nan
nan
nan
500
0
nan
nan
nan
nan
nan
nan
nan
nan
nan
nan
nan
nan
nan
nan
nan
nan
nan
nan
500
0
nan
nan
nan
nan
nan
nan
nan
nan
nan
nan
nan
nan
nan
nan
nan
nan
nan
nan
500
0
nan
nan
nan
nan
nan
nan
nan
nan
nan
nan
nan
nan
nan
nan
nan
nan
nan
nan
500
0
nan
nan
nan
nan
nan
nan
nan
nan
nan
nan
nan
nan
nan
nan
nan
nan
nan
nan
500
0
nan
nan
nan
nan
nan
nan
nan
nan
nan
nan
nan
nan
nan
nan
nan
nan
nan
nan
500
0
nan
nan
nan
nan
nan
nan
nan
nan
nan
nan
nan
nan
nan
nan
nan
nan
nan
nan
500
0
nan
nan
nan
nan
nan
nan
nan
nan
nan
nan
nan
nan
nan
nan
nan
nan
nan
nan
500
0
nan
nan
nan
nan
nan
nan
nan
nan
nan
nan
nan
nan
nan
nan
nan
nan
nan
nan
500
0
0
0
0
0
0
0
0
0
0
0
0
0
0
0
0
0
0
0
250
