# vtk DataFile Version 3.0 
vtk output 
ASCII 
DATASET UNSTRUCTURED_GRID 
POINTS 121 double
0 0 0
0.1 0 0
0.2 0 0
0.3 0 0
0.4 0 0
0.5 0 0
0.6 0 0
0.7 0 0
0.8 0 0
0.9 0 0
1 0 0
0 0.1 0
0.0999999 0.0999999 0
0.2 0.0999997 0
0.3 0.0999996 0
0.4 0.0999996 0
0.5 0.0999996 0
0.6 0.0999996 0
0.7 0.0999997 0
0.8 0.0999998 0
0.9 0.0999999 0
1 0.1 0
0 0.2 0
0.0999997 0.2 0
0.2 0.2 0
0.299999 0.199999 0
0.399999 0.199999 0
0.499999 0.199999 0
0.599999 0.199999 0
0.699999 0.199999 0
0.8 0.2 0
0.9 0.2 0
1 0.2 0
0 0.3 0
0.0999996 0.3 0
0.199999 0.299999 0
0.299999 0.299999 0
0.399999 0.299999 0
0.499999 0.299999 0
0.599999 0.299999 0
0.699999 0.299999 0
0.799999 0.299999 0
0.9 0.3 0
1 0.3 0
0 0.4 0
0.0999996 0.4 0
0.199999 0.399999 0
0.299999 0.399999 0
0.399999 0.399999 0
0.499999 0.399999 0
0.599999 0.399999 0
0.699999 0.399999 0
0.799999 0.399999 0
0.9 0.4 0
1 0.4 0
0 0.5 0
0.0999996 0.5 0
0.199999 0.499999 0
0.299999 0.499999 0
0.399999 0.499999 0
0.499999 0.499999 0
0.599999 0.499999 0
0.699999 0.499999 0
0.799999 0.499999 0
0.9 0.5 0
1 0.5 0
0 0.6 0
0.0999996 0.6 0
0.199999 0.599999 0
0.299999 0.599999 0
0.399999 0.599999 0
0.499999 0.599999 0
0.599999 0.599999 0
0.699999 0.599999 0
0.799999 0.599999 0
0.9 0.6 0
1 0.6 0
0 0.7 0
0.0999997 0.7 0
0.199999 0.699999 0
0.299999 0.699999 0
0.399999 0.699999 0
0.499999 0.699999 0
0.599999 0.699999 0
0.699999 0.699999 0
0.799999 0.699999 0
0.9 0.7 0
1 0.7 0
0 0.8 0
0.0999998 0.8 0
0.2 0.8 0
0.299999 0.799999 0
0.399999 0.799999 0
0.499999 0.799999 0
0.599999 0.799999 0
0.699999 0.799999 0
0.8 0.8 0
0.9 0.8 0
1 0.8 0
0 0.9 0
0.0999999 0.9 0
0.2 0.9 0
0.3 0.9 0
0.4 0.9 0
0.5 0.9 0
0.6 0.9 0
0.7 0.9 0
0.8 0.9 0
0.9 0.9 0
1 0.9 0
0 1 0
0.1 1 0
0.2 1 0
0.3 1 0
0.4 1 0
0.5 1 0
0.6 1 0
0.7 1 0
0.8 1 0
0.9 1 0
1 1 0

POINT_DATA 121
SCALARS Temperature double 1
LOOKUP_TABLE default
0
0
0
0
0
0
0
0
0
0
250
0
5.53748
11.6532
19.0136
28.4993
41.4431
60.1717
89.4183
140.454
244.462
500
0
10.4967
22.0618
35.9019
53.5405
77.1017
109.825
157.047
227.938
337.395
500
0
14.3875
30.1954
48.9919
72.659
103.598
144.981
201.008
276.854
377.18
500
0
16.8578
35.3405
57.2111
84.506
119.649
165.494
225.148
301.293
394.471
500
0
17.7033
37.0976
60.0061
88.5045
125
172.196
232.798
308.698
399.41
500
0
16.8579
35.3406
57.2112
84.5061
119.649
165.494
225.148
301.293
394.471
500
0
14.3875
30.1955
48.992
72.6592
103.598
144.981
201.008
276.855
377.18
500
0
10.4967
22.0619
35.9021
53.5407
77.102
109.826
157.048
227.938
337.395
500
0
5.53751
11.6533
19.0137
28.4994
41.4433
60.1719
89.4186
140.455
244.463
500
0
0
0
0
0
0
0
0
0
0
250
