# vtk DataFile Version 3.0 
vtk output 
ASCII 
DATASET UNSTRUCTURED_GRID 
POINTS 125 double
0 2 0
1 2 0
2 2 0
3 2 0
4 2 0
0 1 0
1 1 0
2 1 0
3 1 0
4 1 0
0 2 0
1 2 0
2 2 0
3 2 0
4 2 0
0 3 0
1 3 0
2 3 0
3 3 0
4 3 0
0 2 0
1 2 0
2 2 0
3 2 0
4 2 0
0 2 1
1 4 1
2 4 1
3 4 1
4 2 1
0 1 1
1 2.09524 1
2 2.28571 1
3 2.09524 1
4 1 1
0 2 1
1 2 1
2 2 1
3 2 1
4 2 1
0 3 1
1 1.90476 1
2 1.71429 1
3 1.90476 1
4 3 1
0 2 1
1 0 1
2 0 1
3 0 1
4 2 1
0 2 2
1 4 2
2 4 2
3 4 2
4 2 2
0 1 2
1 2.28571 2
2 2.52381 2
3 2.28571 2
4 1 2
0 2 2
1 2 2
2 2 2
3 2 2
4 2 2
0 3 2
1 1.71429 2
2 1.47619 2
3 1.71429 2
4 3 2
0 2 2
1 0 2
2 0 2
3 0 2
4 2 2
0 2 3
1 4 3
2 4 3
3 4 3
4 2 3
0 1 3
1 2.09524 3
2 2.28571 3
3 2.09524 3
4 1 3
0 2 3
1 2 3
2 2 3
3 2 3
4 2 3
0 3 3
1 1.90476 3
2 1.71429 3
3 1.90476 3
4 3 3
0 2 3
1 0 3
2 0 3
3 0 3
4 2 3
0 2 4
1 2 4
2 2 4
3 2 4
4 2 4
0 1 4
1 1 4
2 1 4
3 1 4
4 1 4
0 2 4
1 2 4
2 2 4
3 2 4
4 2 4
0 3 4
1 3 4
2 3 4
3 3 4
4 3 4
0 2 4
1 2 4
2 2 4
3 2 4
4 2 4

POINT_DATA 125
SCALARS Temperature double 1
LOOKUP_TABLE default
0
29.3719
35.5273
54.1634
0
0
20.0209
28.5482
45.69
0
0
18.3249
26.2371
43.3069
0
0
14.1186
22.6439
36.3641
0
0
25.9985
32.1587
47.3847
0
0
50
50
50
0
0
27.7651
36.0566
33.0658
0
0
27.0166
34.7574
32.0505
0
0
26.4696
34.4774
31.1829
0
0
50
50
50
0
0
50
50
50
0
0
33.4968
42.2029
34.598
0
0
32.7568
41.2405
33.8442
0
0
33.205
41.8107
34.2054
0
0
50
50
50
0
0
50
50
50
0
0
48.2562
57.8253
48.4749
0
0
48.215
58.0178
48.4264
0
0
48.1926
57.736
48.3946
0
0
50
50
50
0
0
100
100
100
0
0
100
100
100
0
0
100
100
100
0
0
100
100
100
0
0
100
100
100
0
