# vtk DataFile Version 3.0
ParaView Output
ASCII
DATASET STRUCTURED_GRID
DIMENSIONS 11 11 11
POINTS 1331 double
0 0 0
0.4 0 0
0.8 0 0
1.2 0 0
1.6 0 0
2 0 0
2.4 0 0
2.8 0 0
3.2 0 0
3.6 0 0
4 0 0
0 0.4 0
0.4 0.4 0
0.8 0.4 0
1.2 0.4 0
1.6 0.4 0
2 0.4 0
2.4 0.4 0
2.8 0.4 0
3.2 0.4 0
3.6 0.4 0
4 0.4 0
0 0.8 0
0.4 0.8 0
0.8 0.8 0
1.2 0.8 0
1.6 0.8 0
2 0.8 0
2.4 0.8 0
2.8 0.8 0
3.2 0.8 0
3.6 0.8 0
4 0.8 0
0 1.2 0
0.4 1.2 0
0.8 1.2 0
1.2 1.2 0
1.6 1.2 0
2 1.2 0
2.4 1.2 0
2.8 1.2 0
3.2 1.2 0
3.6 1.2 0
4 1.2 0
0 1.6 0
0.4 1.6 0
0.8 1.6 0
1.2 1.6 0
1.6 1.6 0
2 1.6 0
2.4 1.6 0
2.8 1.6 0
3.2 1.6 0
3.6 1.6 0
4 1.6 0
0 2 0
0.4 2 0
0.8 2 0
1.2 2 0
1.6 2 0
2 2 0
2.4 2 0
2.8 2 0
3.2 2 0
3.6 2 0
4 2 0
0 2.4 0
0.4 2.4 0
0.8 2.4 0
1.2 2.4 0
1.6 2.4 0
2 2.4 0
2.4 2.4 0
2.8 2.4 0
3.2 2.4 0
3.6 2.4 0
4 2.4 0
0 2.8 0
0.4 2.8 0
0.8 2.8 0
1.2 2.8 0
1.6 2.8 0
2 2.8 0
2.4 2.8 0
2.8 2.8 0
3.2 2.8 0
3.6 2.8 0
4 2.8 0
0 3.2 0
0.4 3.2 0
0.8 3.2 0
1.2 3.2 0
1.6 3.2 0
2 3.2 0
2.4 3.2 0
2.8 3.2 0
3.2 3.2 0
3.6 3.2 0
4 3.2 0
0 3.6 0
0.4 3.6 0
0.8 3.6 0
1.2 3.6 0
1.6 3.6 0
2 3.6 0
2.4 3.6 0
2.8 3.6 0
3.2 3.6 0
3.6 3.6 0
4 3.6 0
0 4 0
0.4 4 0
0.8 4 0
1.2 4 0
1.6 4 0
2 4 0
2.4 4 0
2.8 4 0
3.2 4 0
3.6 4 0
4 4 0
0 0 0.4
0.4 0 0.4
0.8 0 0.4
1.2 0 0.4
1.6 0 0.4
2 0 0.4
2.4 0 0.4
2.8 0 0.4
3.2 0 0.4
3.6 0 0.4
4 0 0.4
0 0.4 0.4
0.4 0.4 0.4
0.8 0.4 0.4
1.2 0.4 0.4
1.6 0.4 0.4
2 0.4 0.4
2.4 0.4 0.4
2.8 0.4 0.4
3.2 0.4 0.4
3.6 0.4 0.4
4 0.4 0.4
0 0.8 0.4
0.4 0.8 0.4
0.8 0.8 0.4
1.2 0.8 0.4
1.6 0.8 0.4
2 0.8 0.4
2.4 0.8 0.4
2.8 0.8 0.4
3.2 0.8 0.4
3.6 0.8 0.4
4 0.8 0.4
0 1.2 0.4
0.4 1.2 0.4
0.8 1.2 0.4
1.2 1.2 0.4
1.6 1.2 0.4
2 1.2 0.4
2.4 1.2 0.4
2.8 1.2 0.4
3.2 1.2 0.4
3.6 1.2 0.4
4 1.2 0.4
0 1.6 0.4
0.4 1.6 0.4
0.8 1.6 0.4
1.2 1.6 0.4
1.6 1.6 0.4
2 1.6 0.4
2.4 1.6 0.4
2.8 1.6 0.4
3.2 1.6 0.4
3.6 1.6 0.4
4 1.6 0.4
0 2 0.4
0.4 2 0.4
0.8 2 0.4
1.2 2 0.4
1.6 2 0.4
2 2 0.4
2.4 2 0.4
2.8 2 0.4
3.2 2 0.4
3.6 2 0.4
4 2 0.4
0 2.4 0.4
0.4 2.4 0.4
0.8 2.4 0.4
1.2 2.4 0.4
1.6 2.4 0.4
2 2.4 0.4
2.4 2.4 0.4
2.8 2.4 0.4
3.2 2.4 0.4
3.6 2.4 0.4
4 2.4 0.4
0 2.8 0.4
0.4 2.8 0.4
0.8 2.8 0.4
1.2 2.8 0.4
1.6 2.8 0.4
2 2.8 0.4
2.4 2.8 0.4
2.8 2.8 0.4
3.2 2.8 0.4
3.6 2.8 0.4
4 2.8 0.4
0 3.2 0.4
0.4 3.2 0.4
0.8 3.2 0.4
1.2 3.2 0.4
1.6 3.2 0.4
2 3.2 0.4
2.4 3.2 0.4
2.8 3.2 0.4
3.2 3.2 0.4
3.6 3.2 0.4
4 3.2 0.4
0 3.6 0.4
0.4 3.6 0.4
0.8 3.6 0.4
1.2 3.6 0.4
1.6 3.6 0.4
2 3.6 0.4
2.4 3.6 0.4
2.8 3.6 0.4
3.2 3.6 0.4
3.6 3.6 0.4
4 3.6 0.4
0 4 0.4
0.4 4 0.4
0.8 4 0.4
1.2 4 0.4
1.6 4 0.4
2 4 0.4
2.4 4 0.4
2.8 4 0.4
3.2 4 0.4
3.6 4 0.4
4 4 0.4
0 0 0.8
0.4 0 0.8
0.8 0 0.8
1.2 0 0.8
1.6 0 0.8
2 0 0.8
2.4 0 0.8
2.8 0 0.8
3.2 0 0.8
3.6 0 0.8
4 0 0.8
0 0.4 0.8
0.4 0.4 0.8
0.8 0.4 0.8
1.2 0.4 0.8
1.6 0.4 0.8
2 0.4 0.8
2.4 0.4 0.8
2.8 0.4 0.8
3.2 0.4 0.8
3.6 0.4 0.8
4 0.4 0.8
0 0.8 0.8
0.4 0.8 0.8
0.8 0.8 0.8
1.2 0.8 0.8
1.6 0.8 0.8
2 0.8 0.8
2.4 0.8 0.8
2.8 0.8 0.8
3.2 0.800001 0.8
3.6 0.800001 0.8
4 0.8 0.8
0 1.2 0.8
0.4 1.2 0.8
0.8 1.2 0.8
1.2 1.2 0.8
1.6 1.2 0.8
2 1.2 0.8
2.4 1.2 0.8
2.8 1.2 0.8
3.2 1.2 0.8
3.6 1.2 0.8
4 1.2 0.8
0 1.6 0.8
0.4 1.6 0.8
0.8 1.6 0.8
1.2 1.6 0.8
1.6 1.6 0.8
2 1.6 0.8
2.4 1.6 0.8
2.8 1.6 0.8
3.2 1.6 0.8
3.6 1.6 0.8
4 1.6 0.8
0 2 0.8
0.4 2 0.8
0.8 2 0.8
1.2 2 0.8
1.6 2 0.8
2 2 0.8
2.4 2 0.8
2.8 2 0.8
3.2 2 0.8
3.6 2 0.8
4 2 0.8
0 2.4 0.8
0.4 2.4 0.8
0.8 2.4 0.8
1.2 2.4 0.8
1.6 2.4 0.8
2 2.4 0.8
2.4 2.4 0.8
2.8 2.4 0.8
3.2 2.4 0.8
3.6 2.4 0.8
4 2.4 0.8
0 2.8 0.8
0.4 2.8 0.8
0.8 2.8 0.8
1.2 2.8 0.8
1.6 2.8 0.8
2 2.8 0.8
2.4 2.8 0.8
2.8 2.8 0.8
3.2 2.8 0.8
3.6 2.8 0.8
4 2.8 0.8
0 3.2 0.8
0.4 3.2 0.8
0.8 3.2 0.8
1.2 3.2 0.8
1.6 3.2 0.8
2 3.2 0.8
2.4 3.2 0.8
2.8 3.2 0.8
3.2 3.2 0.8
3.6 3.2 0.8
4 3.2 0.8
0 3.6 0.8
0.4 3.6 0.8
0.8 3.6 0.8
1.2 3.6 0.8
1.6 3.6 0.8
2 3.6 0.8
2.4 3.6 0.8
2.8 3.6 0.8
3.2 3.6 0.8
3.6 3.6 0.8
4 3.6 0.8
0 4 0.8
0.4 4 0.8
0.8 4 0.8
1.2 4 0.8
1.6 4 0.8
2 4 0.8
2.4 4 0.8
2.8 4 0.8
3.2 4 0.8
3.6 4 0.8
4 4 0.8
0 0 1.2
0.4 0 1.2
0.8 0 1.2
1.2 0 1.2
1.6 0 1.2
2 0 1.2
2.4 0 1.2
2.8 0 1.2
3.2 0 1.2
3.6 0 1.2
4 0 1.2
0 0.4 1.2
0.4 0.4 1.2
0.8 0.4 1.2
1.2 0.4 1.2
1.6 0.4 1.2
2 0.4 1.2
2.4 0.4 1.2
2.8 0.4 1.2
3.2 0.4 1.2
3.6 0.4 1.2
4 0.4 1.2
0 0.8 1.2
0.4 0.8 1.2
0.8 0.8 1.2
1.2 0.8 1.2
1.6 0.8 1.2
2 0.8 1.2
2.4 0.8 1.2
2.8 0.8 1.2
3.2 0.800001 1.2
3.6 0.800001 1.2
4 0.8 1.2
0 1.2 1.2
0.4 1.2 1.2
0.8 1.2 1.2
1.2 1.2 1.2
1.6 1.2 1.2
2 1.2 1.2
2.4 1.2 1.2
2.8 1.2 1.2
3.2 1.2 1.2
3.6 1.2 1.2
4 1.2 1.2
0 1.6 1.2
0.4 1.6 1.2
0.8 1.6 1.2
1.2 1.6 1.2
1.6 1.6 1.2
2 1.6 1.2
2.4 1.6 1.2
2.8 1.6 1.2
3.2 1.6 1.2
3.6 1.6 1.2
4 1.6 1.2
0 2 1.2
0.4 2 1.2
0.8 2 1.2
1.2 2 1.2
1.6 2 1.2
2 2 1.2
2.4 2 1.2
2.8 2 1.2
3.2 2 1.2
3.6 2 1.2
4 2 1.2
0 2.4 1.2
0.4 2.4 1.2
0.8 2.4 1.2
1.2 2.4 1.2
1.6 2.4 1.2
2 2.4 1.2
2.4 2.4 1.2
2.8 2.4 1.2
3.2 2.4 1.2
3.6 2.4 1.2
4 2.4 1.2
0 2.8 1.2
0.4 2.8 1.2
0.8 2.8 1.2
1.2 2.8 1.2
1.6 2.8 1.2
2 2.8 1.2
2.4 2.8 1.2
2.8 2.8 1.2
3.2 2.8 1.2
3.6 2.8 1.2
4 2.8 1.2
0 3.2 1.2
0.4 3.2 1.2
0.8 3.2 1.2
1.2 3.2 1.2
1.6 3.2 1.2
2 3.2 1.2
2.4 3.2 1.2
2.8 3.2 1.2
3.2 3.2 1.2
3.6 3.2 1.2
4 3.2 1.2
0 3.6 1.2
0.4 3.6 1.2
0.8 3.6 1.2
1.2 3.6 1.2
1.6 3.6 1.2
2 3.6 1.2
2.4 3.6 1.2
2.8 3.6 1.2
3.2 3.6 1.2
3.6 3.6 1.2
4 3.6 1.2
0 4 1.2
0.4 4 1.2
0.8 4 1.2
1.2 4 1.2
1.6 4 1.2
2 4 1.2
2.4 4 1.2
2.8 4 1.2
3.2 4 1.2
3.6 4 1.2
4 4 1.2
0 0 1.6
0.4 0 1.6
0.8 0 1.6
1.2 0 1.6
1.6 0 1.6
2 0 1.6
2.4 0 1.6
2.8 0 1.6
3.2 0 1.6
3.6 0 1.6
4 0 1.6
0 0.4 1.6
0.4 0.4 1.6
0.8 0.4 1.6
1.2 0.399999 1.6
1.6 0.399999 1.6
2 0.399999 1.6
2.4 0.399999 1.6
2.8 0.399999 1.6
3.2 0.4 1.6
3.6 0.4 1.6
4 0.4 1.6
0 0.8 1.6
0.4 0.8 1.6
0.8 0.8 1.6
1.2 0.799999 1.6
1.6 0.799999 1.6
2 0.799999 1.6
2.4 0.799999 1.6
2.8 0.799999 1.6
3.2 0.8 1.6
3.6 0.8 1.6
4 0.8 1.6
0 1.2 1.6
0.4 1.2 1.6
0.8 1.2 1.6
1.2 1.2 1.6
1.6 1.2 1.6
2 1.2 1.6
2.4 1.2 1.6
2.8 1.2 1.6
3.2 1.2 1.6
3.6 1.2 1.6
4 1.2 1.6
0 1.6 1.6
0.4 1.6 1.6
0.8 1.6 1.6
1.2 1.6 1.6
1.6 1.6 1.6
2 1.6 1.6
2.4 1.6 1.6
2.8 1.6 1.6
3.2 1.6 1.6
3.6 1.6 1.6
4 1.6 1.6
0 2 1.6
0.4 2 1.6
0.8 2 1.6
1.2 2 1.6
1.6 2 1.6
2 2 1.6
2.4 2 1.6
2.8 2 1.6
3.2 2 1.6
3.6 2 1.6
4 2 1.6
0 2.4 1.6
0.4 2.4 1.6
0.8 2.4 1.6
1.2 2.4 1.6
1.6 2.4 1.6
2 2.4 1.6
2.4 2.4 1.6
2.8 2.4 1.6
3.2 2.4 1.6
3.6 2.4 1.6
4 2.4 1.6
0 2.8 1.6
0.4 2.8 1.6
0.8 2.8 1.6
1.2 2.8 1.6
1.6 2.8 1.6
2 2.8 1.6
2.4 2.8 1.6
2.8 2.8 1.6
3.2 2.8 1.6
3.6 2.8 1.6
4 2.8 1.6
0 3.2 1.6
0.4 3.2 1.6
0.8 3.2 1.6
1.2 3.2 1.6
1.6 3.2 1.6
2 3.2 1.6
2.4 3.2 1.6
2.8 3.2 1.6
3.2 3.2 1.6
3.6 3.2 1.6
4 3.2 1.6
0 3.6 1.6
0.4 3.6 1.6
0.8 3.6 1.6
1.2 3.6 1.6
1.6 3.6 1.6
2 3.6 1.6
2.4 3.6 1.6
2.8 3.6 1.6
3.2 3.6 1.6
3.6 3.6 1.6
4 3.6 1.6
0 4 1.6
0.4 4 1.6
0.8 4 1.6
1.2 4 1.6
1.6 4 1.6
2 4 1.6
2.4 4 1.6
2.8 4 1.6
3.2 4 1.6
3.6 4 1.6
4 4 1.6
0 0 2
0.4 0 2
0.8 0 2
1.2 0 2
1.6 0 2
2 0 2
2.4 0 2
2.8 0 2
3.2 0 2
3.6 0 2
4 0 2
0 0.4 2
0.4 0.4 2
0.8 0.4 2
1.2 0.4 2
1.6 0.4 2
2 0.399999 2
2.4 0.399999 2
2.8 0.399999 2
3.2 0.4 2
3.6 0.4 2
4 0.4 2
0 0.8 2
0.4 0.8 2
0.8 0.8 2
1.2 0.8 2
1.6 0.8 2
2 0.799999 2
2.4 0.799999 2
2.8 0.799999 2
3.2 0.8 2
3.6 0.8 2
4 0.8 2
0 1.2 2
0.4 1.2 2
0.8 1.2 2
1.2 1.2 2
1.6 1.2 2
2 1.2 2
2.4 1.2 2
2.8 1.2 2
3.2 1.2 2
3.6 1.2 2
4 1.2 2
0 1.6 2
0.4 1.6 2
0.8 1.6 2
1.2 1.6 2
1.6 1.6 2
2 1.6 2
2.4 1.6 2
2.8 1.6 2
3.2 1.6 2
3.6 1.6 2
4 1.6 2
0 2 2
0.4 2 2
0.8 2 2
1.2 2 2
1.6 2 2
2 2 2
2.4 2 2
2.8 2 2
3.2 2 2
3.6 2 2
4 2 2
0 2.4 2
0.4 2.4 2
0.8 2.4 2
1.2 2.4 2
1.6 2.4 2
2 2.4 2
2.4 2.4 2
2.8 2.4 2
3.2 2.4 2
3.6 2.4 2
4 2.4 2
0 2.8 2
0.4 2.8 2
0.8 2.8 2
1.2 2.8 2
1.6 2.8 2
2 2.8 2
2.4 2.8 2
2.8 2.8 2
3.2 2.8 2
3.6 2.8 2
4 2.8 2
0 3.2 2
0.4 3.2 2
0.8 3.2 2
1.2 3.2 2
1.6 3.2 2
2 3.2 2
2.4 3.2 2
2.8 3.2 2
3.2 3.2 2
3.6 3.2 2
4 3.2 2
0 3.6 2
0.4 3.6 2
0.8 3.6 2
1.2 3.6 2
1.6 3.6 2
2 3.6 2
2.4 3.6 2
2.8 3.6 2
3.2 3.6 2
3.6 3.6 2
4 3.6 2
0 4 2
0.4 4 2
0.8 4 2
1.2 4 2
1.6 4 2
2 4 2
2.4 4 2
2.8 4 2
3.2 4 2
3.6 4 2
4 4 2
0 0 2.4
0.4 0 2.4
0.8 0 2.4
1.2 0 2.4
1.6 0 2.4
2 0 2.4
2.4 0 2.4
2.8 0 2.4
3.2 0 2.4
3.6 0 2.4
4 0 2.4
0 0.4 2.4
0.4 0.4 2.4
0.8 0.4 2.4
1.2 0.4 2.4
1.6 0.4 2.4
2 0.4 2.4
2.4 0.4 2.4
2.8 0.4 2.4
3.2 0.4 2.4
3.6 0.4 2.4
4 0.4 2.4
0 0.8 2.4
0.4 0.8 2.4
0.8 0.8 2.4
1.2 0.8 2.4
1.6 0.8 2.4
2 0.8 2.4
2.4 0.8 2.4
2.8 0.8 2.4
3.2 0.8 2.4
3.6 0.800001 2.4
4 0.8 2.4
0 1.2 2.4
0.4 1.2 2.4
0.8 1.2 2.4
1.2 1.2 2.4
1.6 1.2 2.4
2 1.2 2.4
2.4 1.2 2.4
2.8 1.2 2.4
3.2 1.2 2.4
3.6 1.2 2.4
4 1.2 2.4
0 1.6 2.4
0.4 1.6 2.4
0.8 1.6 2.4
1.2 1.6 2.4
1.6 1.6 2.4
2 1.6 2.4
2.4 1.6 2.4
2.8 1.6 2.4
3.2 1.6 2.4
3.6 1.6 2.4
4 1.6 2.4
0 2 2.4
0.4 2 2.4
0.8 2 2.4
1.2 2 2.4
1.6 2 2.4
2 2 2.4
2.4 2 2.4
2.8 2 2.4
3.2 2 2.4
3.6 2 2.4
4 2 2.4
0 2.4 2.4
0.4 2.4 2.4
0.8 2.4 2.4
1.2 2.4 2.4
1.6 2.4 2.4
2 2.4 2.4
2.4 2.4 2.4
2.8 2.4 2.4
3.2 2.4 2.4
3.6 2.4 2.4
4 2.4 2.4
0 2.8 2.4
0.4 2.8 2.4
0.8 2.8 2.4
1.2 2.8 2.4
1.6 2.8 2.4
2 2.8 2.4
2.4 2.8 2.4
2.8 2.8 2.4
3.2 2.8 2.4
3.6 2.8 2.4
4 2.8 2.4
0 3.2 2.4
0.4 3.2 2.4
0.8 3.2 2.4
1.2 3.2 2.4
1.6 3.2 2.4
2 3.2 2.4
2.4 3.2 2.4
2.8 3.2 2.4
3.2 3.2 2.4
3.6 3.2 2.4
4 3.2 2.4
0 3.6 2.4
0.4 3.6 2.4
0.8 3.6 2.4
1.2 3.6 2.4
1.6 3.6 2.4
2 3.6 2.4
2.4 3.6 2.4
2.8 3.6 2.4
3.2 3.6 2.4
3.6 3.6 2.4
4 3.6 2.4
0 4 2.4
0.4 4 2.4
0.8 4 2.4
1.2 4 2.4
1.6 4 2.4
2 4 2.4
2.4 4 2.4
2.8 4 2.4
3.2 4 2.4
3.6 4 2.4
4 4 2.4
0 0 2.8
0.4 0 2.8
0.8 0 2.8
1.2 0 2.8
1.6 0 2.8
2 0 2.8
2.4 0 2.8
2.8 0 2.8
3.2 0 2.8
3.6 0 2.8
4 0 2.8
0 0.4 2.8
0.4 0.4 2.8
0.8 0.4 2.8
1.2 0.399999 2.8
1.6 0.399999 2.8
2 0.399999 2.8
2.4 0.399999 2.8
2.8 0.399999 2.8
3.2 0.4 2.8
3.6 0.4 2.8
4 0.4 2.8
0 0.8 2.8
0.4 0.8 2.8
0.8 0.8 2.8
1.2 0.8 2.8
1.6 0.799999 2.8
2 0.799999 2.8
2.4 0.799999 2.8
2.8 0.799999 2.8
3.2 0.8 2.8
3.6 0.800001 2.8
4 0.8 2.8
0 1.2 2.8
0.4 1.2 2.8
0.8 1.2 2.8
1.2 1.2 2.8
1.6 1.2 2.8
2 1.2 2.8
2.4 1.2 2.8
2.8 1.2 2.8
3.2 1.2 2.8
3.6 1.2 2.8
4 1.2 2.8
0 1.6 2.8
0.4 1.6 2.8
0.8 1.6 2.8
1.2 1.6 2.8
1.6 1.6 2.8
2 1.6 2.8
2.4 1.6 2.8
2.8 1.6 2.8
3.2 1.6 2.8
3.6 1.6 2.8
4 1.6 2.8
0 2 2.8
0.4 2 2.8
0.8 2 2.8
1.2 2 2.8
1.6 2 2.8
2 2 2.8
2.4 2 2.8
2.8 2 2.8
3.2 2 2.8
3.6 2 2.8
4 2 2.8
0 2.4 2.8
0.4 2.4 2.8
0.8 2.4 2.8
1.2 2.4 2.8
1.6 2.4 2.8
2 2.4 2.8
2.4 2.4 2.8
2.8 2.4 2.8
3.2 2.4 2.8
3.6 2.4 2.8
4 2.4 2.8
0 2.8 2.8
0.4 2.8 2.8
0.8 2.8 2.8
1.2 2.8 2.8
1.6 2.8 2.8
2 2.8 2.8
2.4 2.8 2.8
2.8 2.8 2.8
3.2 2.8 2.8
3.6 2.8 2.8
4 2.8 2.8
0 3.2 2.8
0.4 3.2 2.8
0.8 3.2 2.8
1.2 3.2 2.8
1.6 3.2 2.8
2 3.2 2.8
2.4 3.2 2.8
2.8 3.2 2.8
3.2 3.2 2.8
3.6 3.2 2.8
4 3.2 2.8
0 3.6 2.8
0.4 3.6 2.8
0.8 3.6 2.8
1.2 3.6 2.8
1.6 3.6 2.8
2 3.6 2.8
2.4 3.6 2.8
2.8 3.6 2.8
3.2 3.6 2.8
3.6 3.6 2.8
4 3.6 2.8
0 4 2.8
0.4 4 2.8
0.8 4 2.8
1.2 4 2.8
1.6 4 2.8
2 4 2.8
2.4 4 2.8
2.8 4 2.8
3.2 4 2.8
3.6 4 2.8
4 4 2.8
0 0 3.2
0.4 0 3.2
0.8 0 3.2
1.2 0 3.2
1.6 0 3.2
2 0 3.2
2.4 0 3.2
2.8 0 3.2
3.2 0 3.2
3.6 0 3.2
4 0 3.2
0 0.4 3.2
0.4 0.4 3.2
0.8 0.4 3.2
1.2 0.4 3.2
1.6 0.4 3.2
2 0.4 3.2
2.4 0.4 3.2
2.8 0.4 3.2
3.2 0.4 3.2
3.6 0.4 3.2
4 0.4 3.2
0 0.8 3.2
0.4 0.8 3.2
0.8 0.8 3.2
1.2 0.8 3.2
1.6 0.8 3.2
2 0.8 3.2
2.4 0.8 3.2
2.8 0.8 3.2
3.2 0.800001 3.2
3.6 0.800001 3.2
4 0.8 3.2
0 1.2 3.2
0.4 1.2 3.2
0.8 1.2 3.2
1.2 1.2 3.2
1.6 1.2 3.2
2 1.2 3.2
2.4 1.2 3.2
2.8 1.2 3.2
3.2 1.2 3.2
3.6 1.2 3.2
4 1.2 3.2
0 1.6 3.2
0.4 1.6 3.2
0.8 1.6 3.2
1.2 1.6 3.2
1.6 1.6 3.2
2 1.6 3.2
2.4 1.6 3.2
2.8 1.6 3.2
3.2 1.6 3.2
3.6 1.6 3.2
4 1.6 3.2
0 2 3.2
0.4 2 3.2
0.8 2 3.2
1.2 2 3.2
1.6 2 3.2
2 2 3.2
2.4 2 3.2
2.8 2 3.2
3.2 2 3.2
3.6 2 3.2
4 2 3.2
0 2.4 3.2
0.4 2.4 3.2
0.8 2.4 3.2
1.2 2.4 3.2
1.6 2.4 3.2
2 2.4 3.2
2.4 2.4 3.2
2.8 2.4 3.2
3.2 2.4 3.2
3.6 2.4 3.2
4 2.4 3.2
0 2.8 3.2
0.4 2.8 3.2
0.8 2.8 3.2
1.2 2.8 3.2
1.6 2.8 3.2
2 2.8 3.2
2.4 2.8 3.2
2.8 2.8 3.2
3.2 2.8 3.2
3.6 2.8 3.2
4 2.8 3.2
0 3.2 3.2
0.4 3.2 3.2
0.8 3.2 3.2
1.2 3.2 3.2
1.6 3.2 3.2
2 3.2 3.2
2.4 3.2 3.2
2.8 3.2 3.2
3.2 3.2 3.2
3.6 3.2 3.2
4 3.2 3.2
0 3.6 3.2
0.4 3.6 3.2
0.8 3.6 3.2
1.2 3.6 3.2
1.6 3.6 3.2
2 3.6 3.2
2.4 3.6 3.2
2.8 3.6 3.2
3.2 3.6 3.2
3.6 3.6 3.2
4 3.6 3.2
0 4 3.2
0.4 4 3.2
0.8 4 3.2
1.2 4 3.2
1.6 4 3.2
2 4 3.2
2.4 4 3.2
2.8 4 3.2
3.2 4 3.2
3.6 4 3.2
4 4 3.2
0 0 3.6
0.4 0 3.6
0.8 0 3.6
1.2 0 3.6
1.6 0 3.6
2 0 3.6
2.4 0 3.6
2.8 0 3.6
3.2 0 3.6
3.6 0 3.6
4 0 3.6
0 0.4 3.6
0.4 0.4 3.6
0.8 0.4 3.6
1.2 0.4 3.6
1.6 0.4 3.6
2 0.4 3.6
2.4 0.4 3.6
2.8 0.4 3.6
3.2 0.4 3.6
3.6 0.4 3.6
4 0.4 3.6
0 0.8 3.6
0.4 0.8 3.6
0.8 0.8 3.6
1.2 0.800001 3.6
1.6 0.8 3.6
2 0.8 3.6
2.4 0.8 3.6
2.8 0.800001 3.6
3.2 0.800001 3.6
3.6 0.800001 3.6
4 0.8 3.6
0 1.2 3.6
0.4 1.2 3.6
0.8 1.2 3.6
1.2 1.2 3.6
1.6 1.2 3.6
2 1.2 3.6
2.4 1.2 3.6
2.8 1.2 3.6
3.2 1.2 3.6
3.6 1.2 3.6
4 1.2 3.6
0 1.6 3.6
0.4 1.6 3.6
0.8 1.6 3.6
1.2 1.6 3.6
1.6 1.6 3.6
2 1.6 3.6
2.4 1.6 3.6
2.8 1.6 3.6
3.2 1.6 3.6
3.6 1.6 3.6
4 1.6 3.6
0 2 3.6
0.4 2 3.6
0.8 2 3.6
1.2 2 3.6
1.6 2 3.6
2 2 3.6
2.4 2 3.6
2.8 2 3.6
3.2 2 3.6
3.6 2 3.6
4 2 3.6
0 2.4 3.6
0.4 2.4 3.6
0.8 2.4 3.6
1.2 2.4 3.6
1.6 2.4 3.6
2 2.4 3.6
2.4 2.4 3.6
2.8 2.4 3.6
3.2 2.4 3.6
3.6 2.4 3.6
4 2.4 3.6
0 2.8 3.6
0.4 2.8 3.6
0.8 2.8 3.6
1.2 2.8 3.6
1.6 2.8 3.6
2 2.8 3.6
2.4 2.8 3.6
2.8 2.8 3.6
3.2 2.8 3.6
3.6 2.8 3.6
4 2.8 3.6
0 3.2 3.6
0.4 3.2 3.6
0.8 3.2 3.6
1.2 3.2 3.6
1.6 3.2 3.6
2 3.2 3.6
2.4 3.2 3.6
2.8 3.2 3.6
3.2 3.2 3.6
3.6 3.2 3.6
4 3.2 3.6
0 3.6 3.6
0.4 3.6 3.6
0.8 3.6 3.6
1.2 3.6 3.6
1.6 3.6 3.6
2 3.6 3.6
2.4 3.6 3.6
2.8 3.6 3.6
3.2 3.6 3.6
3.6 3.6 3.6
4 3.6 3.6
0 4 3.6
0.4 4 3.6
0.8 4 3.6
1.2 4 3.6
1.6 4 3.6
2 4 3.6
2.4 4 3.6
2.8 4 3.6
3.2 4 3.6
3.6 4 3.6
4 4 3.6
0 0 4
0.4 0 4
0.8 0 4
1.2 0 4
1.6 0 4
2 0 4
2.4 0 4
2.8 0 4
3.2 0 4
3.6 0 4
4 0 4
0 0.4 4
0.4 0.4 4
0.8 0.4 4
1.2 0.4 4
1.6 0.4 4
2 0.4 4
2.4 0.4 4
2.8 0.4 4
3.2 0.4 4
3.6 0.4 4
4 0.4 4
0 0.8 4
0.4 0.8 4
0.8 0.8 4
1.2 0.8 4
1.6 0.8 4
2 0.8 4
2.4 0.8 4
2.8 0.8 4
3.2 0.8 4
3.6 0.8 4
4 0.8 4
0 1.2 4
0.4 1.2 4
0.8 1.2 4
1.2 1.2 4
1.6 1.2 4
2 1.2 4
2.4 1.2 4
2.8 1.2 4
3.2 1.2 4
3.6 1.2 4
4 1.2 4
0 1.6 4
0.4 1.6 4
0.8 1.6 4
1.2 1.6 4
1.6 1.6 4
2 1.6 4
2.4 1.6 4
2.8 1.6 4
3.2 1.6 4
3.6 1.6 4
4 1.6 4
0 2 4
0.4 2 4
0.8 2 4
1.2 2 4
1.6 2 4
2 2 4
2.4 2 4
2.8 2 4
3.2 2 4
3.6 2 4
4 2 4
0 2.4 4
0.4 2.4 4
0.8 2.4 4
1.2 2.4 4
1.6 2.4 4
2 2.4 4
2.4 2.4 4
2.8 2.4 4
3.2 2.4 4
3.6 2.4 4
4 2.4 4
0 2.8 4
0.4 2.8 4
0.8 2.8 4
1.2 2.8 4
1.6 2.8 4
2 2.8 4
2.4 2.8 4
2.8 2.8 4
3.2 2.8 4
3.6 2.8 4
4 2.8 4
0 3.2 4
0.4 3.2 4
0.8 3.2 4
1.2 3.2 4
1.6 3.2 4
2 3.2 4
2.4 3.2 4
2.8 3.2 4
3.2 3.2 4
3.6 3.2 4
4 3.2 4
0 3.6 4
0.4 3.6 4
0.8 3.6 4
1.2 3.6 4
1.6 3.6 4
2 3.6 4
2.4 3.6 4
2.8 3.6 4
3.2 3.6 4
3.6 3.6 4
4 3.6 4
0 4 4
0.4 4 4
0.8 4 4
1.2 4 4
1.6 4 4
2 4 4
2.4 4 4
2.8 4 4
3.2 4 4
3.6 4 4
4 4 4

POINT_DATA 1331
SCALARS Temperature double
LOOKUP_TABLE default
1000
1000
1000
1000
1000
1000
1000
1000
1000
1000
1000
1000
1000
1000
1000
1000
1000
1000
1000
1000
1000
1000
1000
1000
1000
1000
1000
1000
1000
1000
1000
1000
1000
1000
1000
1000
1000
1000
1000
1000
1000
1000
1000
1000
1000
1000
1000
1000
1000
1000
1000
1000
1000
1000
1000
1000
1000
1000
1000
1000
1000
1000
1000
1000
1000
1000
1000
1000
1000
1000
1000
1000
1000
1000
1000
1000
1000
1000
1000
1000
1000
1000
1000
1000
1000
1000
1000
1000
1000
1000
1000
1000
1000
1000
1000
1000
1000
1000
1000
1000
1000
1000
1000
1000
1000
1000
1000
1000
1000
1000
1000
1000
1000
1000
1000
1000
1000
1000
1000
1000
1000
1000
988.925
979.007
971.225
966.284
964.593
966.284
971.225
979.007
988.925
1000
1000
988.925
979.007
971.225
966.284
964.593
966.284
971.225
979.007
988.925
1000
1000
988.925
979.007
971.225
966.284
964.593
966.284
971.225
979.007
988.925
1000
1000
988.925
979.007
971.225
966.284
964.593
966.284
971.225
979.007
988.925
1000
1000
988.925
979.007
971.225
966.284
964.593
966.284
971.225
979.007
988.925
1000
1000
988.925
979.007
971.225
966.284
964.593
966.284
971.225
979.007
988.925
1000
1000
988.925
979.007
971.225
966.284
964.593
966.284
971.225
979.007
988.925
1000
1000
988.925
979.007
971.225
966.284
964.593
966.284
971.225
979.007
988.925
1000
1000
988.925
979.007
971.225
966.284
964.593
966.284
971.225
979.007
988.925
1000
1000
988.925
979.007
971.225
966.284
964.593
966.284
971.225
979.007
988.925
1000
1000
988.925
979.007
971.225
966.284
964.593
966.284
971.225
979.007
988.925
1000
1000
976.693
955.876
939.609
929.319
925.805
929.319
939.609
955.876
976.693
1000
1000
976.693
955.876
939.609
929.319
925.805
929.319
939.609
955.876
976.693
1000
1000
976.693
955.876
939.609
929.319
925.805
929.319
939.609
955.876
976.694
1000
1000
976.693
955.876
939.609
929.319
925.805
929.319
939.609
955.876
976.694
1000
1000
976.693
955.876
939.609
929.319
925.805
929.319
939.609
955.876
976.694
1000
1000
976.693
955.876
939.609
929.319
925.805
929.319
939.609
955.876
976.694
1000
1000
976.693
955.876
939.609
929.319
925.805
929.319
939.609
955.876
976.693
1000
1000
976.693
955.876
939.609
929.319
925.805
929.319
939.609
955.876
976.693
1000
1000
976.693
955.876
939.609
929.319
925.805
929.319
939.609
955.876
976.693
1000
1000
976.693
955.876
939.609
929.319
925.805
929.319
939.609
955.876
976.693
1000
1000
976.693
955.876
939.609
929.319
925.805
929.319
939.609
955.876
976.693
1000
1000
961.973
928.196
902.016
885.578
879.988
885.578
902.016
928.196
961.973
1000
1000
961.973
928.196
902.016
885.578
879.988
885.578
902.016
928.196
961.973
1000
1000
961.973
928.196
902.016
885.578
879.988
885.578
902.016
928.196
961.973
1000
1000
961.973
928.196
902.016
885.578
879.988
885.578
902.016
928.196
961.973
1000
1000
961.973
928.196
902.016
885.578
879.988
885.578
902.016
928.196
961.973
1000
1000
961.973
928.196
902.016
885.578
879.988
885.578
902.016
928.196
961.973
1000
1000
961.973
928.196
902.016
885.578
879.988
885.578
902.016
928.196
961.973
1000
1000
961.973
928.196
902.016
885.578
879.988
885.578
902.016
928.196
961.973
1000
1000
961.973
928.196
902.016
885.578
879.988
885.578
902.016
928.196
961.973
1000
1000
961.973
928.196
902.016
885.578
879.988
885.578
902.016
928.196
961.973
1000
1000
961.973
928.196
902.016
885.578
879.988
885.578
902.016
928.196
961.973
1000
1000
943.001
892.919
854.682
830.988
822.991
830.988
854.682
892.919
943.001
1000
1000
943.001
892.919
854.682
830.988
822.991
830.988
854.682
892.919
943.001
1000
1000
943.001
892.919
854.682
830.988
822.991
830.988
854.682
892.919
943.001
1000
1000
943.001
892.919
854.682
830.988
822.991
830.988
854.682
892.919
943.001
1000
1000
943.001
892.919
854.682
830.988
822.991
830.988
854.682
892.919
943.001
1000
1000
943.001
892.919
854.682
830.988
822.991
830.988
854.682
892.919
943.001
1000
1000
943.001
892.919
854.682
830.988
822.991
830.988
854.682
892.919
943.001
1000
1000
943.001
892.919
854.682
830.988
822.991
830.988
854.682
892.919
943.001
1000
1000
943.001
892.919
854.682
830.988
822.991
830.988
854.682
892.919
943.001
1000
1000
943.001
892.919
854.682
830.988
822.991
830.988
854.682
892.919
943.001
1000
1000
943.001
892.919
854.682
830.988
822.991
830.988
854.682
892.919
943.001
1000
1000
917.113
845.796
792.804
760.701
750
760.701
792.804
845.796
917.113
1000
1000
917.113
845.796
792.804
760.701
750
760.701
792.804
845.796
917.113
1000
1000
917.113
845.796
792.804
760.701
750
760.701
792.804
845.796
917.114
1000
1000
917.113
845.796
792.804
760.701
750
760.701
792.804
845.796
917.114
1000
1000
917.113
845.796
792.804
760.701
750
760.701
792.804
845.796
917.114
1000
1000
917.113
845.796
792.804
760.701
750
760.701
792.804
845.796
917.114
1000
1000
917.113
845.796
792.804
760.701
750
760.701
792.804
845.796
917.113
1000
1000
917.113
845.796
792.804
760.701
750
760.701
792.804
845.796
917.113
1000
1000
917.113
845.796
792.804
760.701
750
760.701
792.804
845.796
917.113
1000
1000
917.113
845.796
792.804
760.701
750
760.701
792.804
845.796
917.113
1000
1000
917.113
845.796
792.804
760.701
750
760.701
792.804
845.796
917.113
1000
1000
879.656
780.349
710.037
669.012
655.607
669.012
710.037
780.349
879.656
1000
1000
879.656
780.349
710.037
669.012
655.607
669.012
710.037
780.349
879.656
1000
1000
879.656
780.349
710.037
669.012
655.607
669.012
710.037
780.349
879.656
1000
1000
879.656
780.349
710.037
669.012
655.607
669.012
710.037
780.349
879.656
1000
1000
879.656
780.349
710.037
669.012
655.607
669.012
710.037
780.349
879.656
1000
1000
879.656
780.349
710.037
669.012
655.607
669.012
710.037
780.349
879.656
1000
1000
879.656
780.349
710.037
669.012
655.607
669.012
710.037
780.349
879.656
1000
1000
879.656
780.349
710.037
669.012
655.607
669.012
710.037
780.349
879.656
1000
1000
879.656
780.349
710.037
669.012
655.607
669.012
710.037
780.349
879.656
1000
1000
879.656
780.349
710.037
669.012
655.607
669.012
710.037
780.349
879.656
1000
1000
879.656
780.349
710.037
669.012
655.607
669.012
710.037
780.349
879.656
1000
1000
821.163
685.905
597.984
549.704
534.404
549.704
597.984
685.905
821.163
1000
1000
821.163
685.905
597.984
549.704
534.404
549.704
597.984
685.905
821.163
1000
1000
821.163
685.905
597.984
549.704
534.404
549.704
597.984
685.905
821.163
1000
1000
821.163
685.905
597.984
549.703
534.404
549.703
597.984
685.905
821.163
1000
1000
821.163
685.905
597.984
549.703
534.404
549.703
597.984
685.905
821.163
1000
1000
821.163
685.905
597.984
549.703
534.404
549.703
597.984
685.905
821.163
1000
1000
821.163
685.905
597.984
549.703
534.404
549.703
597.984
685.905
821.163
1000
1000
821.163
685.905
597.984
549.703
534.404
549.703
597.984
685.905
821.163
1000
1000
821.163
685.905
597.984
549.703
534.404
549.703
597.984
685.905
821.163
1000
1000
821.163
685.905
597.984
549.703
534.404
549.704
597.984
685.905
821.163
1000
1000
821.163
685.905
597.984
549.704
534.404
549.704
597.984
685.905
821.163
1000
1000
719.09
544.124
446.29
397.414
382.603
397.414
446.29
544.124
719.09
1000
1000
719.09
544.124
446.29
397.414
382.603
397.414
446.29
544.124
719.09
1000
1000
719.09
544.124
446.29
397.414
382.603
397.414
446.29
544.124
719.09
1000
1000
719.09
544.123
446.29
397.413
382.603
397.413
446.29
544.124
719.091
1000
1000
719.09
544.123
446.29
397.413
382.603
397.413
446.29
544.124
719.09
1000
1000
719.09
544.124
446.29
397.413
382.603
397.413
446.29
544.124
719.09
1000
1000
719.09
544.124
446.29
397.413
382.603
397.413
446.29
544.124
719.09
1000
1000
719.09
544.124
446.29
397.414
382.603
397.414
446.29
544.124
719.09
1000
1000
719.09
544.124
446.29
397.414
382.603
397.414
446.29
544.124
719.09
1000
1000
719.09
544.124
446.29
397.414
382.603
397.414
446.29
544.124
719.09
1000
1000
719.09
544.124
446.29
397.414
382.603
397.414
446.29
544.124
719.09
1000
1000
511.075
325.21
245.64
211.058
201.18
211.058
245.639
325.21
511.075
1000
1000
511.075
325.209
245.639
211.058
201.18
211.058
245.639
325.209
511.075
1000
1000
511.075
325.209
245.639
211.058
201.18
211.058
245.639
325.209
511.075
1000
1000
511.075
325.209
245.639
211.058
201.18
211.058
245.639
325.209
511.075
1000
1000
511.075
325.209
245.639
211.058
201.18
211.058
245.639
325.209
511.075
1000
1000
511.075
325.209
245.639
211.058
201.18
211.058
245.639
325.209
511.075
1000
1000
511.075
325.21
245.64
211.058
201.18
211.058
245.64
325.21
511.075
1000
1000
511.075
325.209
245.639
211.058
201.18
211.058
245.64
325.21
511.075
1000
1000
511.075
325.209
245.639
211.058
201.18
211.058
245.639
325.209
511.075
1000
1000
511.075
325.21
245.639
211.058
201.18
211.058
245.64
325.21
511.075
1000
1000
511.075
325.21
245.64
211.058
201.18
211.058
245.64
325.21
511.075
1000
500
0
0
0
0
0
0
0
0
0
500
500
0
0
0
0
0
0
0
0
0
500
500
0
0
0
0
0
0
0
0
0
500
500
0
0
0
0
0
0
0
0
0
500
500
0
0
0
0
0
0
0
0
0
500
500
0
0
0
0
0
0
0
0
0
500
500
0
0
0
0
0
0
0
0
0
500
500
0
0
0
0
0
0
0
0
0
500
500
0
0
0
0
0
0
0
0
0
500
500
0
0
0
0
0
0
0
0
0
500
500
0
0
0
0
0
0
0
0
0
500
