# vtk DataFile Version 3.0
ParaView Output
ASCII
DATASET STRUCTURED_GRID
DIMENSIONS 5 5 5
POINTS 125 double
0 0 0
1 0 0
2 0 0
3 0 0
4 0 0
0 1 0
1 1 0
2 1 0
3 1 0
4 1 0
0 2 0
1 2 0
2 2 0
3 2 0
4 2 0
0 3 0
1 3 0
2 3 0
3 3 0
4 3 0
0 4 0
1 4 0
2 4 0
3 4 0
4 4 0
0 0 1
1 0 1
2 0 1
3 0 1
4 0 1
0 1 1
0.996789 0.996789 0.996789
2.00039 1.00122 1.00122
3.00054 0.996789 0.996789
4 1 1
0 2 1
1.00122 2.00039 1.00122
2.00039 2.00039 1.0004
2.99956 2.00039 1.00122
4 2 1
0 3 1
0.996789 3.00054 0.996789
2.00039 2.99956 1.00122
3.00054 3.00054 0.996789
4 3 1
0 4 1
1 4 1
2 4 1
3 4 1
4 4 1
0 0 2
1 0 2
2 0 2
3 0 2
4 0 2
0 1 2
1.00122 1.00122 2.00039
2.00039 1.0004 2.00039
2.99956 1.00122 2.00039
4 1 2
0 2 2
1.0004 2.00039 2.00039
1.99914 1.99914 1.99914
3.00037 2.00039 2.00039
4 2 2
0 3 2
1.00122 2.99956 2.00039
2.00039 3.00037 2.00039
2.99956 2.99956 2.00039
4 3 2
0 4 2
1 4 2
2 4 2
3 4 2
4 4 2
0 0 3
1 0 3
2 0 3
3 0 3
4 0 3
0 1 3
0.996789 0.996789 3.00054
2.00039 1.00122 2.99956
3.00054 0.996789 3.00054
4 1 3
0 2 3
1.00122 2.00039 2.99956
2.00039 2.00039 3.00037
2.99956 2.00039 2.99956
4 2 3
0 3 3
0.996789 3.00054 3.00054
2.00039 2.99956 2.99956
3.00054 3.00054 3.00054
4 3 3
0 4 3
1 4 3
2 4 3
3 4 3
4 4 3
0 0 4
1 0 4
2 0 4
3 0 4
4 0 4
0 1 4
1 1 4
2 1 4
3 1 4
4 1 4
0 2 4
1 2 4
2 2 4
3 2 4
4 2 4
0 3 4
1 3 4
2 3 4
3 3 4
4 3 4
0 4 4
1 4 4
2 4 4
3 4 4
4 4 4

POINT_DATA 125
SCALARS Temperature double
LOOKUP_TABLE default
500
500
500
500
250
1000
1000
1000
1000
500
1000
1000
1000
1000
500
1000
1000
1000
1000
500
500
500
500
500
250
0
0
0
0
0
432.818
424.787
400.271
316.542
0
532.179
521.181
488.076
379.313
0
433.21
425.081
400.27
316.704
0
0
0
0
0
0
0
0
0
0
0
200.258
193.368
172.556
118.277
0
266.7
257.125
228.265
154.909
0
200.312
193.403
172.535
118.286
0
0
0
0
0
0
0
0
0
0
0
109.98
106.278
94.8708
66.3575
0
145.141
139.846
123.806
85.2898
0
110.096
106.366
94.8714
66.3964
0
0
0
0
0
0
50
50
50
50
25
100
100
100
100
50
100
100
100
100
50
100
100
100
100
50
50
50
50
50
25
