# vtk DataFile Version 3.0
ParaView Output
ASCII
DATASET STRUCTURED_GRID
DIMENSIONS 5 5 5
POINTS 125 double
0 0 0
1 0 0
2 0 0
3 0 0
4 0 0
0 1 0
1 1 0
2 1 0
3 1 0
4 1 0
0 2 0
1 2 0
2 2 0
3 2 0
4 2 0
0 3 0
1 3 0
2 3 0
3 3 0
4 3 0
0 4 0
1 4 0
2 4 0
3 4 0
4 4 0
0 0 1
1 0 1
2 0 1
3 0 1
4 0 1
0 1 1
1 1 1
2 1 1
3 1 1
4 1 1
0 2 1
1 2 1
2 2 1
3 2 1
4 2 1
0 3 1
1 3 1
2 3 1
3 3 1
4 3 1
0 4 1
1 4 1
2 4 1
3 4 1
4 4 1
0 0 2
1 0 2
2 0 2
3 0 2
4 0 2
0 1 2
1 1 2
2 1 2
3 1 2
4 1 2
0 2 2
1 2 2
2 2 2
3 2 2
4 2 2
0 3 2
1 3 2
2 3 2
3 3 2
4 3 2
0 4 2
1 4 2
2 4 2
3 4 2
4 4 2
0 0 3
1 0 3
2 0 3
3 0 3
4 0 3
0 1 3
1 1 3
2 1 3
3 1 3
4 1 3
0 2 3
1 2 3
2 2 3
3 2 3
4 2 3
0 3 3
1 3 3
2 3 3
3 3 3
4 3 3
0 4 3
1 4 3
2 4 3
3 4 3
4 4 3
0 0 4
1 0 4
2 0 4
3 0 4
4 0 4
0 1 4
1 1 4
2 1 4
3 1 4
4 1 4
0 2 4
1 2 4
2 2 4
3 2 4
4 2 4
0 3 4
1 3 4
2 3 4
3 3 4
4 3 4
0 4 4
1 4 4
2 4 4
3 4 4
4 4 4

POINT_DATA 125
SCALARS Temperature double
LOOKUP_TABLE default
30
50
50
50
25
60
100
100
100
50
60
100
100
100
50
60
100
100
100
50
30
50
50
50
25
10
0
0
0
0
20
39.4048
42.1569
33.9286
0
20
47.43
51.5686
41.0014
0
20
39.4048
42.1569
33.9286
0
10
0
0
0
0
10
0
0
0
0
20
26.8417
28.0392
20.4132
0
20
34.2017
36.6667
26.5826
0
20
26.8417
28.0392
20.4132
0
10
0
0
0
0
10
0
0
0
0
20
39.4048
42.1569
33.9286
0
20
47.43
51.5686
41.0014
0
20
39.4048
42.1569
33.9286
0
10
0
0
0
0
30
50
50
50
25
60
100
100
100
50
60
100
100
100
50
60
100
100
100
50
30
50
50
50
25
