# vtk DataFile Version 3.0 
vtk output 
ASCII 
DATASET UNSTRUCTURED_GRID 
POINTS 125 double
0 0 0
1 0 0
2 0 0
3 0 0
4 0 0
0 1 0
1 1 0
2 1 0
3 1 0
4 1 0
0 2 0
1 2 0
2 2 0
3 2 0
4 2 0
0 3 0
1 3 0
2 3 0
3 3 0
4 3 0
0 4 0
1 4 0
2 4 0
3 4 0
4 4 0
0 0 1
1 0 1
2 0 1
3 0 1
4 0 1
0 1 1
1 1 1
2 1 1
3 1 1
4 1 1
0 2 1
1 2 1
2 2 1
3 2 1
4 2 1
0 3 1
1 3 1
2 3 1
3 3 1
4 3 1
0 4 1
1 4 1
2 4 1
3 4 1
4 4 1
0 0 2
1 0 2
2 0 2
3 0 2
4 0 2
0 1 2
1 1 2
2 1 2
3 1 2
4 1 2
0 2 2
1 2 2
2 2 2
3 2 2
4 2 2
0 3 2
1 3 2
2 3 2
3 3 2
4 3 2
0 4 2
1 4 2
2 4 2
3 4 2
4 4 2
0 0 3
1 0 3
2 0 3
3 0 3
4 0 3
0 1 3
1 1 3
2 1 3
3 1 3
4 1 3
0 2 3
1 2 3
2 2 3
3 2 3
4 2 3
0 3 3
1 3 3
2 3 3
3 3 3
4 3 3
0 4 3
1 4 3
2 4 3
3 4 3
4 4 3
0 0 4
1 0 4
2 0 4
3 0 4
4 0 4
0 1 4
1 1 4
2 1 4
3 1 4
4 1 4
0 2 4
1 2 4
2 2 4
3 2 4
4 2 4
0 3 4
1 3 4
2 3 4
3 3 4
4 3 4
0 4 4
1 4 4
2 4 4
3 4 4
4 4 4

POINT_DATA 125
SCALARS Temperature double 1
LOOKUP_TABLE default
25
50
50
50
275
0
-153.76
-114.308
33.3026
500
0
-175.672
-126.171
49.9127
500
0
-153.76
-114.308
33.3026
500
25
50
50
50
275
25
50
50
50
275
0
-8.03571
37.5
170.536
500
0
-19.6429
37.5
194.643
500
0
-8.03571
37.5
170.536
500
25
50
50
50
275
25
50
50
50
275
0
37.6882
89.3083
207.769
500
0
36.3864
101.171
239.373
500
0
37.6882
89.3083
207.769
500
25
50
50
50
275
25
50
50
50
275
0
58.4704
101.721
197.396
500
0
61.4132
115.152
224.886
500
0
58.4704
101.721
197.396
500
25
50
50
50
275
50
75
75
75
175
50
100
100
100
300
50
100
100
100
300
50
100
100
100
300
50
75
75
75
175
