# vtk DataFile Version 3.0
ParaView Output
ASCII
DATASET UNSTRUCTURED_GRID
POINTS 27 double
0 0 0
2 0 0
4 0 0
0 2 0
2 2 0
4 2 0
0 4 0
2 4 0
4 4 0
0 0 2
2 0 2
4 0 2
0 2 2
2 2 2
4 2 2
0 4 2
2 4 2
4 4 2
0 0 4
2 0 4
4 0 4
0 2 4
2 2 4
4 2 4
0 4 4
2 4 4
4 4 4

POINT_DATA 27
SCALARS Temperature double
LOOKUP_TABLE default
75
75
175
100
100
300
75
75
175
50
50
275
-400
50
500
50
50
275
50
50
275
-500
-5.2842e-08
500
50
50
275
