# vtk DataFile Version 3.0
ParaView Output
ASCII
DATASET STRUCTURED_GRID
DIMENSIONS 11 11 1
POINTS 121 double
0 0 0
0.5 0 0
1 0 0
1.5 0 0
2 0 0
2.5 0 0
3 0 0
3.5 0 0
4 0 0
4.5 0 0
5 0 0
0 1 0
0.5 1 0
1 1 0
1.5 1 0
2 1 0
2.5 1 0
3 1 0
3.5 1 0
4 1 0
4.5 1 0
5 1 0
0 2 0
0.5 2 0
1 2 0
1.5 2 0
2 2 0
2.5 2 0
3 2 0
3.5 2 0
4 2 0
4.5 2 0
5 2 0
0 3 0
0.5 3 0
1 3 0
1.5 3 0
2 3 0
2.5 3 0
3 3 0
3.5 3 0
4 3 0
4.5 3 0
5 3 0
0 4 0
0.5 4 0
1 4 0
1.5 4 0
2 4 0
2.5 4 0
3 4 0
3.5 4 0
4 4 0
4.5 4 0
5 4 0
0 5 0
0.5 5 0
1 5 0
1.5 5 0
2 5 0
2.5 5 0
3 5 0
3.5 5 0
4 5 0
4.5 5 0
5 5 0
0 6 0
0.5 6 0
1 6 0
1.5 6 0
2 6 0
2.5 6 0
3 6 0
3.5 6 0
4 6 0
4.5 6 0
5 6 0
0 7 0
0.5 7 0
1 7 0
1.5 7 0
2 7 0
2.5 7 0
3 7 0
3.5 7 0
4 7 0
4.5 7 0
5 7 0
0 8 0
0.5 8 0
1 8 0
1.5 8 0
2 8 0
2.5 8 0
3 8 0
3.5 8 0
4 8 0
4.5 8 0
5 8 0
0 9 0
0.5 9 0
1 9 0
1.5 9 0
2 9 0
2.5 9 0
3 9 0
3.5 9 0
4 9 0
4.5 9 0
5 9 0
0 10 0
0.5 10 0
1 10 0
1.5 10 0
2 10 0
2.5 10 0
3 10 0
3.5 10 0
4 10 0
4.5 10 0
5 10 0

POINT_DATA 121
SCALARS Temperature double
LOOKUP_TABLE default
60
100
100
100
100
100
100
100
100
100
50
20
80121.4
83409
114610
126817
88156.1
54864
51243.7
68650.8
54165.5
0
20
-3506.35
195.966
32349
45895.5
17311
-17310.8
-14353.4
14481.4
24303.8
0
20
-3305.54
392.881
32543.3
46047.9
17424.6
-17138
-14253.7
14455.4
24137.2
0
20
-4184.46
-481.198
31679.3
45204.4
16689.3
-17896.5
-14933.6
13911.8
23862.6
0
20
-4208.78
-505.489
31655.3
45179.6
16667
-17917.5
-14954.4
13891.4
23846.8
0
20
-4184.46
-481.198
31679.3
45204.4
16689.3
-17896.5
-14933.6
13911.8
23862.6
0
20
-3305.54
392.881
32543.3
46047.9
17424.6
-17138
-14253.7
14455.4
24137.2
0
20
-3506.35
195.966
32349
45895.5
17311
-17310.8
-14353.4
14481.4
24303.8
0
20
80121.4
83409
114610
126817
88156.1
54864
51243.7
68650.8
54165.5
0
60
100
100
100
100
100
100
100
100
100
50
