# vtk DataFile Version 3.0
ParaView Output
ASCII
DATASET STRUCTURED_GRID
DIMENSIONS 5 5 5
POINTS 125 double
0 0 0
1 0 0
2 0 0
3 0 0
4 0 0
0 1 0
1 1 0
2 1 0
3 1 0
4 1 0
0 2 0
1 2 0
2 2 0
3 2 0
4 2 0
0 3 0
1 3 0
2 3 0
3 3 0
4 3 0
0 4 0
1 4 0
2 4 0
3 4 0
4 4 0
0 0 1
1 0 1
2 0 1
3 0 1
4 0 1
0 1 1
1 1 1
2 1 1
3 1 1
4 1 1
0 2 1
1 2 1
2 2 1
3 2 1
4 2 1
0 3 1
1 3 1
2 3 1
3 3 1
4 3 1
0 4 1
1 4 1
2 4 1
3 4 1
4 4 1
0 0 2
1 0 2
2 0 2
3 0 2
4 0 2
0 1 2
1 1 2
2 1 2
3 1 2
4 1 2
0 2 2
1 2 2
2 2 2
3 2 2
4 2 2
0 3 2
1 3 2
2 3 2
3 3 2
4 3 2
0 4 2
1 4 2
2 4 2
3 4 2
4 4 2
0 0 3
1 0 3
2 0 3
3 0 3
4 0 3
0 1 3
1 1 3
2 1 3
3 1 3
4 1 3
0 2 3
1 2 3
2 2 3
3 2 3
4 2 3
0 3 3
1 3 3
2 3 3
3 3 3
4 3 3
0 4 3
1 4 3
2 4 3
3 4 3
4 4 3
0 0 4
1 0 4
2 0 4
3 0 4
4 0 4
0 1 4
1 1 4
2 1 4
3 1 4
4 1 4
0 2 4
1 2 4
2 2 4
3 2 4
4 2 4
0 3 4
1 3 4
2 3 4
3 3 4
4 3 4
0 4 4
1 4 4
2 4 4
3 4 4
4 4 4

POINT_DATA 125
SCALARS Temperature double
LOOKUP_TABLE default
500
500
500
500
250
1000
1000
1000
1000
500
1000
1000
1000
1000
500
1000
1000
1000
1000
500
500
500
500
500
250
0
0
0
0
0
432.615
424.578
400.268
316.32
0
531.971
521.073
488.181
379.288
0
432.615
424.578
400.268
316.32
0
0
0
0
0
0
0
0
0
0
0
200.439
193.512
172.531
118.363
0
266.715
257.133
228.186
154.91
0
200.439
193.512
172.531
118.363
0
0
0
0
0
0
0
0
0
0
0
110.166
106.39
94.8605
66.414
0
145.057
139.799
123.828
85.261
0
110.166
106.39
94.8605
66.414
0
0
0
0
0
0
50
50
50
50
25
100
100
100
100
50
100
100
100
100
50
100
100
100
100
50
50
50
50
50
25
