# vtk DataFile Version 3.0
ParaView Output
ASCII
DATASET STRUCTURED_GRID
DIMENSIONS 11 11 1
POINTS 121 double
0 0 0
0.4 0 0
0.8 0 0
1.2 0 0
1.6 0 0
2 0 0
2.4 0 0
2.8 0 0
3.2 0 0
3.6 0 0
4 0 0
0 0.4 0
0.4 0.4 0
0.8 0.4 0
1.2 0.4 0
1.6 0.4 0
2 0.4 0
2.4 0.4 0
2.8 0.4 0
3.2 0.4 0
3.6 0.4 0
4 0.4 0
0 0.8 0
0.4 0.8 0
0.8 0.8 0
1.2 0.8 0
1.6 0.8 0
2 0.8 0
2.4 0.8 0
2.8 0.8 0
3.2 0.8 0
3.6 0.8 0
4 0.8 0
0 1.2 0
0.4 1.2 0
0.8 1.2 0
1.2 1.2 0
1.6 1.2 0
2 1.2 0
2.4 1.2 0
2.8 1.2 0
3.2 1.2 0
3.6 1.2 0
4 1.2 0
0 1.6 0
0.4 1.6 0
0.8 1.6 0
1.2 1.6 0
1.6 1.6 0
2 1.6 0
2.4 1.6 0
2.8 1.6 0
3.2 1.6 0
3.6 1.6 0
4 1.6 0
0 2 0
0.4 2 0
0.8 2 0
1.2 2 0
1.6 2 0
2 2 0
2.4 2 0
2.8 2 0
3.2 2 0
3.6 2 0
4 2 0
0 2.4 0
0.4 2.4 0
0.8 2.4 0
1.2 2.4 0
1.6 2.4 0
2 2.4 0
2.4 2.4 0
2.8 2.4 0
3.2 2.4 0
3.6 2.4 0
4 2.4 0
0 2.8 0
0.4 2.8 0
0.8 2.8 0
1.2 2.8 0
1.6 2.8 0
2 2.8 0
2.4 2.8 0
2.8 2.8 0
3.2 2.8 0
3.6 2.8 0
4 2.8 0
0 3.2 0
0.4 3.2 0
0.8 3.2 0
1.2 3.2 0
1.6 3.2 0
2 3.2 0
2.4 3.2 0
2.8 3.2 0
3.2 3.2 0
3.6 3.2 0
4 3.2 0
0 3.6 0
0.4 3.6 0
0.8 3.6 0
1.2 3.6 0
1.6 3.6 0
2 3.6 0
2.4 3.6 0
2.8 3.6 0
3.2 3.6 0
3.6 3.6 0
4 3.6 0
0 4 0
0.4 4 0
0.8 4 0
1.2 4 0
1.6 4 0
2 4 0
2.4 4 0
2.8 4 0
3.2 4 0
3.6 4 0
4 4 0

POINT_DATA 121
SCALARS Temperature double
LOOKUP_TABLE default
150
100
100
100
100
100
100
100
100
100
50
200
152.215
134.158
125.591
119.821
114.163
107.152
97.429
82.6371
56.645
0
200
174.702
158.825
148.385
139.529
129.678
117.015
99.9273
76.4742
43.9429
0
200
187.769
178.054
169.597
160.233
148.005
131.305
108.79
79.3898
42.6524
0
200
198.322
196.023
191.715
183.802
170.804
151.407
124.54
89.642
47.2769
0
200
209.496
216.002
217.437
212.458
200
178.981
148.32
107.361
56.8133
0
200
223.66
241.051
249.573
248.593
237.757
216.198
182.398
134.67
72.6149
0
200
244.093
274.97
291.21
294.583
286.238
265.654
230.403
176.306
98.9763
0
200
277.744
323.526
345.713
352.292
346.959
329.777
297.255
241.175
146.984
0
200
343.355
395.676
415.825
421.911
419.528
409.242
387.663
344.156
247.785
0
350
500
500
500
500
500
500
500
500
500
250
