# vtk DataFile Version 3.0
ParaView Output
ASCII
DATASET STRUCTURED_GRID
DIMENSIONS 10 10 1
POINTS 100 double
0 0 0
0.111111 0 0
0.222222 0 0
0.333333 0 0
0.444444 0 0
0.555556 0 0
0.666667 0 0
0.777778 0 0
0.888889 0 0
1 0 0
0 0.111111 0
-0.00712498 -0.00712498 0
-0.0190318 -0.00380513 0
1.57672 0.492847 0
2.46854 0.798686 0
4.69837 0.978389 0
-1.04864 0.0893524 0
1.05736 0.0842971 0
1.94466 0.136467 0
1 0.111111 0
0 0.222222 0
-0.00380513 -0.0190318 0
-0.0123851 -0.0123851 0
1.5856 0.989505 0
2.47617 1.60689 0
4.71076 1.9667 0
-1.03126 0.181679 0
1.08052 0.164513 0
1.97095 0.269552 0
1 0.222222 0
0 0.333333 0
0.492847 1.57672 0
0.989505 1.5856 0
0.933468 0.933468 0
1.31532 0.925811 0
1.69759 0.484107 0
-1.78512 -0.755907 0
4.03899 1.6928 0
4.89916 1.67737 0
1 0.333333 0
0 0.444444 0
0.798686 2.46854 0
1.60689 2.47617 0
0.925811 1.31532 0
-4.23786 -4.23786 0
6.49303 4.25207 0
6.68475 5.805 0
5.76183 2.47873 0
6.60708 2.41143 0
1 0.444444 0
0 0.555556 0
0.978389 4.69837 0
1.9667 4.71076 0
0.484107 1.69759 0
4.25207 6.49303 0
-4.2844 -4.2844 0
-7.15657 -6.92335 0
7.07355 4.77696 0
7.99752 4.61084 0
1 0.555556 0
0 0.666667 0
0.0893524 -1.04864 0
0.181679 -1.03126 0
-0.755907 -1.78512 0
5.805 6.68475 0
-6.92335 -7.15657 0
-13.026 -13.026 0
1.288 -0.710643 0
1.73865 -0.669173 0
1 0.666667 0
0 0.777778 0
0.0842971 1.05736 0
0.164513 1.08052 0
1.6928 4.03899 0
2.47873 5.76183 0
4.77696 7.07355 0
-0.710643 1.288 0
1.66053 1.66053 0
2.60061 1.98406 0
1 0.777778 0
0 0.888889 0
0.136467 1.94466 0
0.269552 1.97095 0
1.67737 4.89916 0
2.41143 6.60708 0
4.61084 7.99752 0
-0.669173 1.73865 0
1.98406 2.60061 0
2.93401 2.93401 0
1 0.888889 0
0 1 0
0.111111 1 0
0.222222 1 0
0.333333 1 0
0.444444 1 0
0.555556 1 0
0.666667 1 0
0.777778 1 0
0.888889 1 0
1 1 0

POINT_DATA 100
SCALARS Temperature double
LOOKUP_TABLE default
60
100
100
100
100
100
100
100
100
50
20
-4.53415e+19
5.08586e+19
1.16798e+21
1.35556e+19
-1.14872e+20
-1.51087e+21
6.17956e+18
5.61429e+18
0
20
7.3659e+18
-4.21739e+18
-3.72605e+19
-2.11607e+19
-1.20587e+20
-9.60768e+20
9.8623e+16
-2.22691e+17
0
20
-7.95493e+20
-3.54712e+20
3.19525e+20
-4.00615e+20
-1.31444e+20
-4.84373e+21
-6.41001e+19
-2.06126e+19
0
20
-2.71598e+19
-5.91187e+19
-1.30385e+20
-6.47424e+16
2.7461e+17
-1.06992e+20
3.27885e+18
1.78935e+19
0
20
-2.27027e+20
-3.64035e+20
3.32818e+20
-1.89078e+18
-3.35758e+15
-2.97373e+18
1.5139e+19
-5.58874e+17
0
20
1.15445e+20
-2.02527e+21
1.68296e+20
1.22685e+20
-9.16623e+18
-8.32674e+19
1.47265e+20
5.34296e+19
0
20
-1.48723e+18
1.21995e+17
3.62844e+18
5.59059e+18
-1.53065e+19
-1.09308e+20
6.95989e+17
-2.09434e+17
0
20
6.24652e+19
4.6802e+19
5.23357e+17
1.32038e+19
-1.7173e+18
-8.7849e+18
1.64349e+18
2.05687e+18
0
60
100
100
100
100
100
100
100
100
50
