# vtk DataFile Version 3.0
ParaView Output
ASCII
DATASET STRUCTURED_GRID
DIMENSIONS 4 4 4
POINTS 64 double
0 0 0
0.333333 0 0
0.666667 0 0
1 0 0
0 0.333333 0
0.333333 0.333333 0
0.666667 0.333333 0
1 0.333333 0
0 0.666667 0
0.333333 0.666667 0
0.666667 0.666667 0
1 0.666667 0
0 1 0
0.333333 1 0
0.666667 1 0
1 1 0
0 0 0.333333
0.333333 0 0.333333
0.666667 0 0.333333
1 0 0.333333
0 0.333333 0.333333
0.333333 0.333333 0.333333
0.666667 0.333333 0.333333
1 0.333333 0.333333
0 0.666667 0.333333
0.333333 0.666667 0.333333
0.666667 0.666667 0.333333
1 0.666667 0.333333
0 1 0.333333
0.333333 1 0.333333
0.666667 1 0.333333
1 1 0.333333
0 0 0.666667
0.333333 0 0.666667
0.666667 0 0.666667
1 0 0.666667
0 0.333333 0.666667
0.333333 0.333333 0.666667
0.666667 0.333333 0.666667
1 0.333333 0.666667
0 0.666667 0.666667
0.333333 0.666667 0.666667
0.666667 0.666667 0.666667
1 0.666667 0.666667
0 1 0.666667
0.333333 1 0.666667
0.666667 1 0.666667
1 1 0.666667
0 0 1
0.333333 0 1
0.666667 0 1
1 0 1
0 0.333333 1
0.333333 0.333333 1
0.666667 0.333333 1
1 0.333333 1
0 0.666667 1
0.333333 0.666667 1
0.666667 0.666667 1
1 0.666667 1
0 1 1
0.333333 1 1
0.666667 1 1
1 1 1

POINT_DATA 64
SCALARS Temperature double
LOOKUP_TABLE default
3
5
5
2.5
6
10
10
5
6
10
10
5
3
5
5
2.5
1
0
0
0
2
1.44175
1.50354
0
2
1.79564
2.05159
0
1
0
0
0
1
0
0
0
2
1.06728
1.03846
0
2
1.44355
1.63575
0
1
0
0
0
1.75
2.5
2.5
1.25
3.5
5
5
2.5
3.5
5
5
2.5
1.75
2.5
2.5
1.25
