# vtk DataFile Version 3.0
ParaView Output
ASCII
DATASET STRUCTURED_GRID
DIMENSIONS 5 5 5
POINTS 125 double
0 0 0
1 0 0
2 0 0
3 0 0
4 0 0
0 1 0
1 1 0
2 1 0
3 1 0
4 1 0
0 2 0
1 2 0
2 2 0
3 2 0
4 2 0
0 3 0
1 3 0
2 3 0
3 3 0
4 3 0
0 4 0
1 4 0
2 4 0
3 4 0
4 4 0
0 0 1
1 0 1
2 0 1
3 0 1
4 0 1
0 1 1
0 0 0
0 0 0
0 0 0
4 1 1
0 2 1
0 0 0
0 0 0
0 0 0
4 2 1
0 3 1
0 0 0
0 0 0
0 0 0
4 3 1
0 4 1
1 4 1
2 4 1
3 4 1
4 4 1
0 0 2
1 0 2
2 0 2
3 0 2
4 0 2
0 1 2
0 0 0
0 0 0
0 0 0
4 1 2
0 2 2
0 0 0
0 0 0
0 0 0
4 2 2
0 3 2
0 0 0
0 0 0
0 0 0
4 3 2
0 4 2
1 4 2
2 4 2
3 4 2
4 4 2
0 0 3
1 0 3
2 0 3
3 0 3
4 0 3
0 1 3
0 0 0
0 0 0
0 0 0
4 1 3
0 2 3
0 0 0
0 0 0
0 0 0
4 2 3
0 3 3
0 0 0
0 0 0
0 0 0
4 3 3
0 4 3
1 4 3
2 4 3
3 4 3
4 4 3
0 0 4
1 0 4
2 0 4
3 0 4
4 0 4
0 1 4
1 1 4
2 1 4
3 1 4
4 1 4
0 2 4
1 2 4
2 2 4
3 2 4
4 2 4
0 3 4
1 3 4
2 3 4
3 3 4
4 3 4
0 4 4
1 4 4
2 4 4
3 4 4
4 4 4

POINT_DATA 125
SCALARS Temperature double
LOOKUP_TABLE default
130
250
250
250
125
260
500
500
500
250
260
500
500
500
250
260
500
500
500
250
130
250
250
250
125
10
0
0
0
0
20
0
0
0
0
20
0
0
0
0
20
0
0
0
0
10
0
0
0
0
10
0
0
0
0
20
0
0
0
0
20
0
0
0
0
20
0
0
0
0
10
0
0
0
0
10
0
0
0
0
20
0
0
0
0
20
0
0
0
0
20
0
0
0
0
10
0
0
0
0
30
50
50
50
25
60
100
100
100
50
60
100
100
100
50
60
100
100
100
50
30
50
50
50
25
