# vtk DataFile Version 3.0 
vtk output 
ASCII 
DATASET UNSTRUCTURED_GRID 
POINTS 441 double
0 0 0
0.05 0 0
0.1 0 0
0.15 0 0
0.2 0 0
0.25 0 0
0.3 0 0
0.35 0 0
0.4 0 0
0.45 0 0
0.5 0 0
0.55 0 0
0.6 0 0
0.65 0 0
0.7 0 0
0.75 0 0
0.8 0 0
0.85 0 0
0.9 0 0
0.95 0 0
1 0 0
0 0.05 0
0.0499955 0.0499955 0
0.0999913 0.0499913 0
0.149987 0.0499874 0
0.199984 0.0499838 0
0.249981 0.0499808 0
0.299978 0.0499783 0
0.349976 0.0499764 0
0.399975 0.0499751 0
0.449974 0.0499745 0
0.499974 0.0499745 0
0.549975 0.0499751 0
0.599976 0.0499763 0
0.649978 0.0499781 0
0.69998 0.0499803 0
0.749983 0.049983 0
0.799986 0.0499861 0
0.849989 0.0499894 0
0.899993 0.0499929 0
0.949996 0.0499964 0
1 0.05 0
0 0.1 0
0.0499913 0.0999913 0
0.099983 0.099983 0
0.149975 0.0999753 0
0.199968 0.0999685 0
0.249963 0.0999625 0
0.299958 0.0999576 0
0.349954 0.0999539 0
0.399951 0.0999514 0
0.44995 0.0999502 0
0.49995 0.0999502 0
0.549951 0.0999514 0
0.599954 0.0999538 0
0.649957 0.0999572 0
0.699962 0.0999616 0
0.749967 0.0999669 0
0.799973 0.0999728 0
0.849979 0.0999793 0
0.899986 0.0999861 0
0.949993 0.099993 0
1 0.1 0
0 0.15 0
0.0499874 0.149987 0
0.0999753 0.149975 0
0.149964 0.149964 0
0.199954 0.149954 0
0.249946 0.149946 0
0.299939 0.149939 0
0.349933 0.149933 0
0.39993 0.14993 0
0.449928 0.149928 0
0.499928 0.149928 0
0.549929 0.149929 0
0.599933 0.149933 0
0.649938 0.149938 0
0.699944 0.149944 0
0.749952 0.149952 0
0.799961 0.149961 0
0.84997 0.14997 0
0.89998 0.14998 0
0.94999 0.14999 0
1 0.15 0
0 0.2 0
0.0499838 0.199984 0
0.0999685 0.199968 0
0.149954 0.199954 0
0.199941 0.199941 0
0.24993 0.19993 0
0.299921 0.199921 0
0.349915 0.199915 0
0.39991 0.19991 0
0.449908 0.199908 0
0.499908 0.199908 0
0.54991 0.19991 0
0.599914 0.199914 0
0.649921 0.199921 0
0.699929 0.199929 0
0.749939 0.199939 0
0.79995 0.19995 0
0.849962 0.199962 0
0.899974 0.199974 0
0.949987 0.199987 0
1 0.2 0
0 0.25 0
0.0499808 0.249981 0
0.0999625 0.249963 0
0.149946 0.249946 0
0.19993 0.24993 0
0.249917 0.249917 0
0.299907 0.249907 0
0.349898 0.249898 0
0.399893 0.249893 0
0.44989 0.24989 0
0.49989 0.24989 0
0.549893 0.249893 0
0.599898 0.249898 0
0.649906 0.249906 0
0.699915 0.249915 0
0.749927 0.249927 0
0.79994 0.24994 0
0.849954 0.249954 0
0.899969 0.249969 0
0.949985 0.249985 0
1 0.25 0
0 0.3 0
0.0499783 0.299978 0
0.0999576 0.299958 0
0.149939 0.299939 0
0.199921 0.299921 0
0.249907 0.299907 0
0.299894 0.299894 0
0.349885 0.299885 0
0.399879 0.299879 0
0.449876 0.299876 0
0.499876 0.299876 0
0.549879 0.299879 0
0.599885 0.299885 0
0.649893 0.299893 0
0.699904 0.299904 0
0.749917 0.299917 0
0.799932 0.299932 0
0.849948 0.299948 0
0.899965 0.299965 0
0.949983 0.299983 0
1 0.3 0
0 0.35 0
0.0499764 0.349976 0
0.0999539 0.349954 0
0.149933 0.349933 0
0.199915 0.349915 0
0.249898 0.349898 0
0.299885 0.349885 0
0.349875 0.349875 0
0.399868 0.349868 0
0.449865 0.349865 0
0.499865 0.349865 0
0.549868 0.349868 0
0.599875 0.349875 0
0.649884 0.349884 0
0.699896 0.349896 0
0.74991 0.34991 0
0.799926 0.349926 0
0.849944 0.349944 0
0.899962 0.349962 0
0.949981 0.349981 0
1 0.35 0
0 0.4 0
0.0499751 0.399975 0
0.0999514 0.399951 0
0.14993 0.39993 0
0.19991 0.39991 0
0.249893 0.399893 0
0.299879 0.399879 0
0.349868 0.399868 0
0.399861 0.399861 0
0.449858 0.399858 0
0.499858 0.399858 0
0.549861 0.399861 0
0.599868 0.399868 0
0.649878 0.399878 0
0.69989 0.39989 0
0.749905 0.399905 0
0.799922 0.399922 0
0.849941 0.399941 0
0.89996 0.39996 0
0.94998 0.39998 0
1 0.4 0
0 0.45 0
0.0499745 0.449974 0
0.0999502 0.44995 0
0.149928 0.449928 0
0.199908 0.449908 0
0.24989 0.44989 0
0.299876 0.449876 0
0.349865 0.449865 0
0.399858 0.449858 0
0.449854 0.449854 0
0.499854 0.449854 0
0.549858 0.449858 0
0.599865 0.449865 0
0.649875 0.449875 0
0.699888 0.449888 0
0.749903 0.449903 0
0.79992 0.44992 0
0.849939 0.449939 0
0.899959 0.449959 0
0.94998 0.44998 0
1 0.45 0
0 0.5 0
0.0499745 0.499974 0
0.0999502 0.49995 0
0.149928 0.499928 0
0.199908 0.499908 0
0.24989 0.49989 0
0.299876 0.499876 0
0.349865 0.499865 0
0.399858 0.499858 0
0.449854 0.499854 0
0.499854 0.499854 0
0.549858 0.499858 0
0.599865 0.499865 0
0.649875 0.499875 0
0.699888 0.499888 0
0.749903 0.499903 0
0.79992 0.49992 0
0.849939 0.499939 0
0.899959 0.499959 0
0.94998 0.49998 0
1 0.5 0
0 0.55 0
0.0499751 0.549975 0
0.0999514 0.549951 0
0.149929 0.549929 0
0.19991 0.54991 0
0.249893 0.549893 0
0.299879 0.549879 0
0.349868 0.549868 0
0.399861 0.549861 0
0.449858 0.549858 0
0.499858 0.549858 0
0.549861 0.549861 0
0.599868 0.549868 0
0.649878 0.549878 0
0.69989 0.54989 0
0.749905 0.549905 0
0.799922 0.549922 0
0.849941 0.549941 0
0.89996 0.54996 0
0.94998 0.54998 0
1 0.55 0
0 0.6 0
0.0499763 0.599976 0
0.0999538 0.599954 0
0.149933 0.599933 0
0.199914 0.599914 0
0.249898 0.599898 0
0.299885 0.599885 0
0.349875 0.599875 0
0.399868 0.599868 0
0.449865 0.599865 0
0.499865 0.599865 0
0.549868 0.599868 0
0.599874 0.599874 0
0.649884 0.599884 0
0.699896 0.599896 0
0.74991 0.59991 0
0.799926 0.599926 0
0.849944 0.599944 0
0.899962 0.599962 0
0.949981 0.599981 0
1 0.6 0
0 0.65 0
0.0499781 0.649978 0
0.0999572 0.649957 0
0.149938 0.649938 0
0.199921 0.649921 0
0.249906 0.649906 0
0.299893 0.649893 0
0.349884 0.649884 0
0.399878 0.649878 0
0.449875 0.649875 0
0.499875 0.649875 0
0.549878 0.649878 0
0.599884 0.649884 0
0.649892 0.649892 0
0.699903 0.649903 0
0.749917 0.649917 0
0.799932 0.649932 0
0.849948 0.649948 0
0.899965 0.649965 0
0.949982 0.649982 0
1 0.65 0
0 0.7 0
0.0499803 0.69998 0
0.0999616 0.699962 0
0.149944 0.699944 0
0.199929 0.699929 0
0.249915 0.699915 0
0.299904 0.699904 0
0.349896 0.699896 0
0.39989 0.69989 0
0.449888 0.699888 0
0.499888 0.699888 0
0.54989 0.69989 0
0.599896 0.699896 0
0.649903 0.699903 0
0.699913 0.699913 0
0.749925 0.699925 0
0.799939 0.699939 0
0.849953 0.699953 0
0.899969 0.699969 0
0.949984 0.699984 0
1 0.7 0
0 0.75 0
0.049983 0.749983 0
0.0999669 0.749967 0
0.149952 0.749952 0
0.199939 0.749939 0
0.249927 0.749927 0
0.299917 0.749917 0
0.34991 0.74991 0
0.399905 0.749905 0
0.449903 0.749903 0
0.499903 0.749903 0
0.549905 0.749905 0
0.59991 0.74991 0
0.649917 0.749917 0
0.699925 0.749925 0
0.749935 0.749935 0
0.799947 0.749947 0
0.84996 0.74996 0
0.899973 0.749973 0
0.949986 0.749986 0
1 0.75 0
0 0.8 0
0.0499861 0.799986 0
0.0999728 0.799973 0
0.149961 0.799961 0
0.19995 0.79995 0
0.24994 0.79994 0
0.299932 0.799932 0
0.349926 0.799926 0
0.399922 0.799922 0
0.44992 0.79992 0
0.49992 0.79992 0
0.549922 0.799922 0
0.599926 0.799926 0
0.649932 0.799932 0
0.699939 0.799939 0
0.749947 0.799947 0
0.799957 0.799957 0
0.849967 0.799967 0
0.899978 0.799978 0
0.949989 0.799989 0
1 0.8 0
0 0.85 0
0.0499894 0.849989 0
0.0999793 0.849979 0
0.14997 0.84997 0
0.199962 0.849962 0
0.249954 0.849954 0
0.299948 0.849948 0
0.349944 0.849944 0
0.399941 0.849941 0
0.449939 0.849939 0
0.499939 0.849939 0
0.549941 0.849941 0
0.599944 0.849944 0
0.649948 0.849948 0
0.699953 0.849953 0
0.74996 0.84996 0
0.799967 0.849967 0
0.849975 0.849975 0
0.899983 0.849983 0
0.949991 0.849991 0
1 0.85 0
0 0.9 0
0.0499929 0.899993 0
0.0999861 0.899986 0
0.14998 0.89998 0
0.199974 0.899974 0
0.249969 0.899969 0
0.299965 0.899965 0
0.349962 0.899962 0
0.39996 0.89996 0
0.449959 0.899959 0
0.499959 0.899959 0
0.54996 0.89996 0
0.599962 0.899962 0
0.649965 0.899965 0
0.699969 0.899969 0
0.749973 0.899973 0
0.799978 0.899978 0
0.849983 0.899983 0
0.899989 0.899989 0
0.949994 0.899994 0
1 0.9 0
0 0.95 0
0.0499964 0.949996 0
0.099993 0.949993 0
0.14999 0.94999 0
0.199987 0.949987 0
0.249985 0.949985 0
0.299983 0.949983 0
0.349981 0.949981 0
0.39998 0.94998 0
0.44998 0.94998 0
0.49998 0.94998 0
0.54998 0.94998 0
0.599981 0.949981 0
0.649982 0.949982 0
0.699984 0.949984 0
0.749986 0.949986 0
0.799989 0.949989 0
0.849991 0.949991 0
0.899994 0.949994 0
0.949997 0.949997 0
1 0.95 0
0 1 0
0.05 1 0
0.1 1 0
0.15 1 0
0.2 1 0
0.25 1 0
0.3 1 0
0.35 1 0
0.4 1 0
0.45 1 0
0.5 1 0
0.55 1 0
0.6 1 0
0.65 1 0
0.7 1 0
0.75 1 0
0.8 1 0
0.85 1 0
0.9 1 0
0.95 1 0
1 1 0

POINT_DATA 441
SCALARS Temperature double 1
LOOKUP_TABLE default
0
0
0
0
0
0
0
0
0
0
0
0
0
0
0
0
0
0
0
0
250
0
1.37172
2.77887
4.25816
5.84891
7.59475
9.54564
11.7609
14.3132
17.2953
20.83
25.0874
30.3152
36.8942
45.4491
57.0851
73.9423
100.636
148.422
248.603
500
0
2.708
5.48563
8.40489
11.5428
14.9846
18.8272
23.185
28.1971
34.0385
40.9379
49.2055
59.2806
71.8144
87.8198
108.953
138.055
180.19
244.472
346.032
500
0
3.97466
8.05074
12.333
16.9331
21.9737
27.5938
33.9552
41.2522
49.7248
59.6791
71.5178
85.7896
103.266
125.068
152.859
189.144
237.613
303.263
391.075
500
0
5.13986
10.4096
15.9432
21.8828
28.3836
35.6194
43.7905
53.1326
63.9307
76.5373
91.3994
109.097
130.397
156.331
188.28
228.057
277.869
339.904
415.018
500
0
6.17508
12.5046
19.1475
26.2714
34.0584
42.7101
52.4552
63.5579
76.3294
91.1419
108.448
128.804
152.9
181.584
215.879
256.945
305.912
363.475
429.1
500
0
7.05575
14.2861
21.8704
29.997
38.8686
48.7077
59.7628
72.3153
86.6881
103.255
122.449
144.776
170.818
201.231
236.715
277.937
325.368
378.991
437.909
500
0
7.76165
15.7136
24.0508
32.9772
42.711
53.4892
65.5731
79.253
94.8542
112.741
133.319
157.035
184.37
215.812
251.817
292.726
338.635
389.219
443.547
500
0
8.27708
16.7556
25.6415
35.1497
45.5087
56.965
69.7872
84.2697
100.735
119.537
141.052
165.679
193.816
225.832
262.02
302.52
347.231
395.704
447.062
500
0
8.59089
17.3898
26.6094
36.4708
47.2087
59.0746
72.3408
87.3031
104.282
123.619
145.676
170.815
199.386
231.685
267.913
308.106
352.069
399.309
448.996
500
0
8.69643
17.6032
26.9349
36.915
47.78
59.7831
73.1979
88.3201
105.469
124.983
147.216
172.522
201.229
233.613
269.843
309.924
353.634
400.468
449.615
500
0
8.59148
17.3911
26.6113
36.4736
47.2124
59.0793
72.3466
87.3101
104.29
123.628
145.686
170.826
199.397
231.697
267.923
308.115
352.077
399.314
448.999
500
0
8.27819
16.7579
25.6452
35.1549
45.5157
56.974
69.7983
84.2831
100.751
119.555
141.072
165.701
193.839
225.855
262.041
302.539
347.247
395.715
447.067
500
0
7.76319
15.7168
24.0559
32.9845
42.7207
53.5017
65.5885
79.2716
94.8761
112.766
133.347
157.066
184.402
215.844
251.848
292.755
338.658
389.235
443.555
500
0
7.05758
14.29
21.8764
30.0056
38.8801
48.7225
59.7812
72.3376
86.7145
103.285
122.483
144.814
170.859
201.272
236.755
277.974
325.399
379.014
437.921
500
0
6.17701
12.5087
19.1539
26.2806
34.0707
42.7259
52.4749
63.5819
76.3579
91.175
108.486
128.846
152.945
181.632
215.927
256.99
305.951
363.504
429.115
500
0
5.14171
10.4135
15.9494
21.8916
28.3954
35.6346
43.8095
53.1559
63.9586
76.57
91.437
109.139
130.444
156.381
188.331
228.108
277.914
339.938
415.037
500
0
3.97624
8.05404
12.3383
16.9406
21.9838
27.6069
33.9717
41.2724
49.7491
59.7078
71.5512
85.8277
103.309
125.115
152.909
189.195
237.662
303.302
391.098
500
0
2.70916
5.48804
8.40874
11.5483
14.992
18.8368
23.1971
28.212
34.0566
40.9594
49.2306
59.3096
71.8476
87.8573
108.994
138.099
180.235
244.512
346.058
500
0
1.37233
2.78015
4.26019
5.85183
7.59867
9.55074
11.7673
14.3211
17.3049
20.8415
25.101
30.331
36.9125
45.4701
57.1091
73.9693
100.666
148.453
248.628
500
0
0
0
0
0
0
0
0
0
0
0
0
0
0
0
0
0
0
0
0
250
