# vtk DataFile Version 3.0
ParaView Output
ASCII
DATASET STRUCTURED_GRID
DIMENSIONS 5 11 1
POINTS 55 double
0 0 0
2 0 0
4 0 0
6 0 0
8 0 0
0 0.4 0
2 0.4 0
4 0.4 0
6 0.4 0
8 0.4 0
0 0.8 0
2 0.8 0
4 0.8 0
6 0.8 0
8 0.8 0
0 1.2 0
2 1.2 0
4 1.2 0
6 1.2 0
8 1.2 0
0 1.6 0
2 1.6 0
4 1.6 0
6 1.6 0
8 1.6 0
0 2 0
2 2 0
4 2 0
6 2 0
8 2 0
0 2.4 0
2 2.4 0
4 2.4 0
6 2.4 0
8 2.4 0
0 2.8 0
2 2.8 0
4 2.8 0
6 2.8 0
8 2.8 0
0 3.2 0
2 3.2 0
4 3.2 0
6 3.2 0
8 3.2 0
0 3.6 0
2 3.6 0
4 3.6 0
6 3.6 0
8 3.6 0
0 4 0
2 4 0
4 4 0
6 4 0
8 4 0

POINT_DATA 55
SCALARS Temperature double
LOOKUP_TABLE default
60
100
100
100
50
20
90.5667
95.921
88.4318
0
20
83.7418
92.3558
80.1012
0
20
79.1221
89.6253
74.4846
0
20
76.4472
87.9206
71.2416
0
20
75.5712
87.342
70.1812
0
20
76.4472
87.9206
71.2416
0
20
79.1221
89.6253
74.4846
0
20
83.7418
92.3558
80.1012
0
20
90.5667
95.921
88.4318
0
60
100
100
100
50
