# vtk DataFile Version 3.0
ParaView Output
ASCII
DATASET STRUCTURED_GRID
DIMENSIONS 5 5 1
POINTS 25 double
0 0 0
1 0 0
2 0 0
3 0 0
4 0 0
0 1 0
-6.73868 -3.66795 0
-3.29492 -6.45225 0
4.75274 -3.66795 0
4 1 0
0 2 0
-12.7379 -3.60618 0
-7.73815 -7.73815 0
5.52552 -3.60618 0
4 2 0
0 3 0
-6.73868 1.68201 0
-3.29492 -0.137578 0
4.75274 1.68201 0
4 3 0
0 4 0
1 4 0
2 4 0
3 4 0
4 4 0

POINT_DATA 25
SCALARS Temperature double
LOOKUP_TABLE default
260
500
500
500
250
20
3.20015e+07
-6.68848e+07
2.60863e+07
0
20
4.09935e+06
9.26595e+07
3.60727e+06
0
20
7.87524e+07
2.14717e+07
6.78947e+07
0
60
100
100
100
50
