# vtk DataFile Version 3.0 
vtk output 
ASCII 
DATASET UNSTRUCTURED_GRID 
POINTS 2601 double
0 0 0
0.1 0 0
0.2 0 0
0.3 0 0
0.4 0 0
0.5 0 0
0.6 0 0
0.7 0 0
0.8 0 0
0.9 0 0
1 0 0
1.1 0 0
1.2 0 0
1.3 0 0
1.4 0 0
1.5 0 0
1.6 0 0
1.7 0 0
1.8 0 0
1.9 0 0
2 0 0
2.1 0 0
2.2 0 0
2.3 0 0
2.4 0 0
2.5 0 0
2.6 0 0
2.7 0 0
2.8 0 0
2.9 0 0
3 0 0
3.1 0 0
3.2 0 0
3.3 0 0
3.4 0 0
3.5 0 0
3.6 0 0
3.7 0 0
3.8 0 0
3.9 0 0
4 0 0
4.1 0 0
4.2 0 0
4.3 0 0
4.4 0 0
4.5 0 0
4.6 0 0
4.7 0 0
4.8 0 0
4.9 0 0
5 0 0
0 0.1 0
0.0999988 0.0999989 0
0.199998 0.0999978 0
0.299996 0.0999967 0
0.399995 0.0999957 0
0.499994 0.0999947 0
0.599993 0.0999937 0
0.699992 0.0999928 0
0.799991 0.099992 0
0.899991 0.0999912 0
0.99999 0.0999904 0
1.09999 0.0999897 0
1.19999 0.0999891 0
1.29999 0.0999885 0
1.39999 0.099988 0
1.49999 0.0999876 0
1.59999 0.0999872 0
1.69999 0.0999868 0
1.79999 0.0999866 0
1.89999 0.0999863 0
1.99999 0.0999862 0
2.09999 0.0999861 0
2.19999 0.0999861 0
2.29999 0.0999861 0
2.39999 0.0999862 0
2.49999 0.0999863 0
2.59999 0.0999865 0
2.69999 0.0999867 0
2.79999 0.099987 0
2.89999 0.0999873 0
2.99999 0.0999877 0
3.09999 0.0999881 0
3.19999 0.0999886 0
3.29999 0.0999891 0
3.39999 0.0999896 0
3.49999 0.0999901 0
3.59999 0.0999907 0
3.69999 0.0999913 0
3.79999 0.0999919 0
3.89999 0.0999926 0
3.99999 0.0999932 0
4.09999 0.0999939 0
4.19999 0.0999946 0
4.29999 0.0999953 0
4.4 0.099996 0
4.5 0.0999966 0
4.6 0.0999973 0
4.7 0.099998 0
4.8 0.0999987 0
4.9 0.0999993 0
5 0.1 0
0 0.2 0
0.0999976 0.199998 0
0.199995 0.199996 0
0.299993 0.199993 0
0.399991 0.199991 0
0.499989 0.199989 0
0.599987 0.199988 0
0.699985 0.199986 0
0.799983 0.199984 0
0.899981 0.199983 0
0.99998 0.199981 0
1.09998 0.19998 0
1.19998 0.199978 0
1.29998 0.199977 0
1.39997 0.199976 0
1.49997 0.199975 0
1.59997 0.199975 0
1.69997 0.199974 0
1.79997 0.199973 0
1.89997 0.199973 0
1.99997 0.199973 0
2.09997 0.199973 0
2.19997 0.199973 0
2.29997 0.199973 0
2.39997 0.199973 0
2.49997 0.199973 0
2.59997 0.199973 0
2.69997 0.199974 0
2.79997 0.199974 0
2.89997 0.199975 0
2.99997 0.199976 0
3.09997 0.199977 0
3.19998 0.199977 0
3.29998 0.199978 0
3.39998 0.199979 0
3.49998 0.199981 0
3.59998 0.199982 0
3.69998 0.199983 0
3.79998 0.199984 0
3.89998 0.199985 0
3.99999 0.199987 0
4.09999 0.199988 0
4.19999 0.199989 0
4.29999 0.199991 0
4.39999 0.199992 0
4.49999 0.199993 0
4.59999 0.199995 0
4.7 0.199996 0
4.8 0.199997 0
4.9 0.199999 0
5 0.2 0
0 0.3 0
0.0999965 0.299997 0
0.199993 0.299993 0
0.29999 0.29999 0
0.399986 0.299987 0
0.499983 0.299984 0
0.59998 0.299982 0
0.699978 0.299979 0
0.799975 0.299977 0
0.899972 0.299974 0
0.99997 0.299972 0
1.09997 0.29997 0
1.19997 0.299968 0
1.29996 0.299967 0
1.39996 0.299965 0
1.49996 0.299964 0
1.59996 0.299963 0
1.69996 0.299962 0
1.79996 0.299961 0
1.89996 0.29996 0
1.99996 0.29996 0
2.09996 0.299959 0
2.19996 0.299959 0
2.29996 0.299959 0
2.39996 0.29996 0
2.49996 0.29996 0
2.59996 0.299961 0
2.69996 0.299961 0
2.79996 0.299962 0
2.89996 0.299963 0
2.99996 0.299964 0
3.09996 0.299965 0
3.19996 0.299967 0
3.29997 0.299968 0
3.39997 0.29997 0
3.49997 0.299971 0
3.59997 0.299973 0
3.69997 0.299975 0
3.79997 0.299976 0
3.89998 0.299978 0
3.99998 0.29998 0
4.09998 0.299982 0
4.19998 0.299984 0
4.29999 0.299986 0
4.39999 0.299988 0
4.49999 0.29999 0
4.59999 0.299992 0
4.69999 0.299994 0
4.8 0.299996 0
4.9 0.299998 0
5 0.3 0
0 0.4 0
0.0999954 0.399996 0
0.199991 0.399991 0
0.299986 0.399987 0
0.399982 0.399983 0
0.499978 0.39998 0
0.599974 0.399976 0
0.699971 0.399973 0
0.799967 0.399969 0
0.899964 0.399966 0
0.999961 0.399963 0
1.09996 0.399961 0
1.19996 0.399958 0
1.29995 0.399956 0
1.39995 0.399954 0
1.49995 0.399952 0
1.59995 0.399951 0
1.69995 0.39995 0
1.79995 0.399949 0
1.89994 0.399948 0
1.99994 0.399947 0
2.09994 0.399947 0
2.19994 0.399947 0
2.29994 0.399947 0
2.39994 0.399947 0
2.49994 0.399948 0
2.59994 0.399948 0
2.69995 0.399949 0
2.79995 0.39995 0
2.89995 0.399952 0
2.99995 0.399953 0
3.09995 0.399955 0
3.19995 0.399956 0
3.29996 0.399958 0
3.39996 0.39996 0
3.49996 0.399962 0
3.59996 0.399964 0
3.69996 0.399967 0
3.79997 0.399969 0
3.89997 0.399972 0
3.99997 0.399974 0
4.09998 0.399977 0
4.19998 0.399979 0
4.29998 0.399982 0
4.39998 0.399985 0
4.49999 0.399987 0
4.59999 0.39999 0
4.69999 0.399992 0
4.79999 0.399995 0
4.9 0.399998 0
5 0.4 0
0 0.5 0
0.0999943 0.499995 0
0.199989 0.499989 0
0.299983 0.499984 0
0.399978 0.49998 0
0.499973 0.499974 0
0.599968 0.49997 0
0.699963 0.499965 0
0.799959 0.499961 0
0.899955 0.499958 0
0.999951 0.499954 0
1.09995 0.499951 0
1.19994 0.499948 0
1.29994 0.499945 0
1.39994 0.499942 0
1.49994 0.49994 0
1.59993 0.499938 0
1.69993 0.499937 0
1.79993 0.499935 0
1.89993 0.499934 0
1.99993 0.499934 0
2.09993 0.499933 0
2.19993 0.499933 0
2.29993 0.499933 0
2.39993 0.499933 0
2.49993 0.499934 0
2.59993 0.499935 0
2.69993 0.499936 0
2.79993 0.499937 0
2.89993 0.499939 0
2.99994 0.499941 0
3.09994 0.499943 0
3.19994 0.499945 0
3.29994 0.499947 0
3.39995 0.49995 0
3.49995 0.499953 0
3.59995 0.499955 0
3.69996 0.499958 0
3.79996 0.499961 0
3.89996 0.499964 0
3.99997 0.499967 0
4.09997 0.499971 0
4.19997 0.499974 0
4.29998 0.499977 0
4.39998 0.499981 0
4.49998 0.499984 0
4.59999 0.499987 0
4.69999 0.49999 0
4.79999 0.499994 0
4.9 0.499997 0
5 0.5 0
0 0.6 0
0.0999931 0.599994 0
0.199986 0.599987 0
0.29998 0.599981 0
0.399974 0.599975 0
0.499968 0.59997 0
0.599962 0.599964 0
0.699957 0.599959 0
0.799951 0.599955 0
0.899947 0.59995 0
0.999942 0.599946 0
1.09994 0.599942 0
1.19993 0.599938 0
1.29993 0.599935 0
1.39993 0.599932 0
1.49992 0.59993 0
1.59992 0.599927 0
1.69992 0.599925 0
1.79992 0.599924 0
1.89992 0.599923 0
1.99992 0.599922 0
2.09992 0.599921 0
2.19992 0.599921 0
2.29992 0.599921 0
2.39992 0.599922 0
2.49992 0.599922 0
2.59992 0.599923 0
2.69992 0.599925 0
2.79992 0.599926 0
2.89992 0.599928 0
2.99993 0.59993 0
3.09993 0.599933 0
3.19993 0.599935 0
3.29993 0.599938 0
3.39994 0.599941 0
3.49994 0.599944 0
3.59994 0.599947 0
3.69995 0.599951 0
3.79995 0.599954 0
3.89996 0.599958 0
3.99996 0.599962 0
4.09996 0.599965 0
4.19997 0.599969 0
4.29997 0.599973 0
4.39998 0.599977 0
4.49998 0.599981 0
4.59998 0.599985 0
4.69999 0.599989 0
4.79999 0.599993 0
4.9 0.599996 0
5 0.6 0
0 0.7 0
0.0999921 0.699993 0
0.199985 0.699985 0
0.299977 0.699979 0
0.39997 0.699972 0
0.499963 0.699965 0
0.599957 0.699959 0
0.69995 0.699953 0
0.799944 0.699948 0
0.899939 0.699943 0
0.999934 0.699938 0
1.09993 0.699934 0
1.19992 0.699929 0
1.29992 0.699926 0
1.39992 0.699922 0
1.49991 0.699919 0
1.59991 0.699917 0
1.69991 0.699915 0
1.79991 0.699913 0
1.89991 0.699912 0
1.9999 0.699911 0
2.0999 0.69991 0
2.1999 0.69991 0
2.2999 0.69991 0
2.3999 0.69991 0
2.49991 0.699911 0
2.59991 0.699912 0
2.69991 0.699914 0
2.79991 0.699916 0
2.89991 0.699918 0
2.99991 0.69992 0
3.09992 0.699923 0
3.19992 0.699926 0
3.29992 0.699929 0
3.39993 0.699933 0
3.49993 0.699936 0
3.59994 0.69994 0
3.69994 0.699944 0
3.79994 0.699948 0
3.89995 0.699952 0
3.99995 0.699956 0
4.09996 0.69996 0
4.19996 0.699965 0
4.29997 0.699969 0
4.39997 0.699974 0
4.49998 0.699978 0
4.59998 0.699983 0
4.69999 0.699987 0
4.79999 0.699991 0
4.9 0.699996 0
5 0.7 0
0 0.8 0
0.0999912 0.799992 0
0.199983 0.799984 0
0.299974 0.799976 0
0.399966 0.799969 0
0.499959 0.799961 0
0.599951 0.799955 0
0.699944 0.799948 0
0.799938 0.799942 0
0.899932 0.799936 0
0.999926 0.799931 0
1.09992 0.799926 0
1.19992 0.799921 0
1.29991 0.799917 0
1.39991 0.799913 0
1.4999 0.79991 0
1.5999 0.799907 0
1.6999 0.799905 0
1.7999 0.799903 0
1.89989 0.799901 0
1.99989 0.7999 0
2.09989 0.799899 0
2.19989 0.799899 0
2.29989 0.799899 0
2.39989 0.7999 0
2.49989 0.799901 0
2.5999 0.799902 0
2.6999 0.799904 0
2.7999 0.799906 0
2.8999 0.799908 0
2.9999 0.799911 0
3.09991 0.799914 0
3.19991 0.799917 0
3.29992 0.799921 0
3.39992 0.799925 0
3.49992 0.799928 0
3.59993 0.799933 0
3.69993 0.799937 0
3.79994 0.799942 0
3.89994 0.799946 0
3.99995 0.799951 0
4.09995 0.799956 0
4.19996 0.799961 0
4.29996 0.799966 0
4.39997 0.799971 0
4.49997 0.799976 0
4.59998 0.799981 0
4.69998 0.799986 0
4.79999 0.79999 0
4.89999 0.799995 0
5 0.8 0
0 0.9 0
0.0999903 0.899991 0
0.199981 0.899982 0
0.299972 0.899974 0
0.399963 0.899965 0
0.499955 0.899958 0
0.599947 0.89995 0
0.699939 0.899943 0
0.799932 0.899936 0
0.899923 0.899928 0
0.999917 0.899922 0
1.09991 0.899916 0
1.19991 0.899911 0
1.2999 0.899907 0
1.3999 0.899902 0
1.49989 0.899899 0
1.59989 0.899895 0
1.69989 0.899893 0
1.79988 0.89989 0
1.89988 0.899889 0
1.99988 0.899888 0
2.09988 0.899887 0
2.19988 0.899886 0
2.29988 0.899887 0
2.39988 0.899887 0
2.49988 0.899888 0
2.59988 0.89989 0
2.69988 0.899892 0
2.79989 0.899894 0
2.89989 0.899897 0
2.99989 0.8999 0
3.0999 0.899903 0
3.1999 0.899907 0
3.2999 0.899911 0
3.39991 0.899915 0
3.49991 0.89992 0
3.59992 0.899924 0
3.69992 0.899929 0
3.79993 0.899934 0
3.89994 0.899939 0
3.99994 0.899945 0
4.09995 0.89995 0
4.19995 0.899956 0
4.29996 0.899961 0
4.39996 0.899967 0
4.49997 0.899973 0
4.59998 0.899978 0
4.69998 0.899984 0
4.79999 0.899989 0
4.89999 0.899995 0
5 0.9 0
0 1 0
0.0999893 0.99999 0
0.199979 0.99998 0
0.299969 0.999971 0
0.399959 0.999962 0
0.49995 0.999953 0
0.599941 0.999944 0
0.699932 0.999937 0
0.799924 0.999929 0
0.899917 0.999922 0
0.99991 0.999915 0
1.0999 0.999909 0
1.1999 0.999904 0
1.29989 0.999899 0
1.39989 0.999894 0
1.49988 0.99989 0
1.59988 0.999887 0
1.69988 0.999884 0
1.79987 0.999881 0
1.89987 0.999879 0
1.99987 0.999878 0
2.09987 0.999877 0
2.19987 0.999877 0
2.29987 0.999877 0
2.39987 0.999878 0
2.49987 0.999879 0
2.59987 0.999881 0
2.69987 0.999883 0
2.79988 0.999885 0
2.89988 0.999888 0
2.99988 0.999891 0
3.09989 0.999895 0
3.19989 0.999899 0
3.2999 0.999903 0
3.3999 0.999908 0
3.49991 0.999913 0
3.59991 0.999918 0
3.69992 0.999923 0
3.79992 0.999929 0
3.89993 0.999934 0
3.99994 0.99994 0
4.09994 0.999946 0
4.19995 0.999952 0
4.29996 0.999958 0
4.39996 0.999964 0
4.49997 0.99997 0
4.59997 0.999976 0
4.69998 0.999982 0
4.79999 0.999988 0
4.89999 0.999994 0
5 1 0
0 1.1 0
0.0999885 1.09999 0
[...]
POINT_DATA 2601
SCALARS Temperature double 1
LOOKUP_TABLE default
0
0
0
0
0
0
0
0
0
0
0
0
0
0
0
0
0
0
0
0
0
0
0
0
0
0
0
0
0
0
0
0
0
0
0
0
0
0
0
0
0
0
0
0
0
0
0
0
0
0
250
0
0.218939
0.438781
0.660435
0.884819
1.11287
1.34553
1.5838
1.82867
2.08121
2.34252
2.61375
2.89612
3.19091
3.49952
3.82342
4.1642
4.52361
4.90351
5.306
5.73334
6.18809
6.67308
7.19151
7.747
8.3437
8.98636
9.68052
10.4326
11.2504
12.1428
13.1209
14.1981
15.3906
16.7192
18.2096
19.8953
21.8197
24.0409
26.6381
29.7222
33.4531
38.0708
43.951
51.7169
62.4758
78.374
104.037
150.733
249.778
500
0
0.436975
0.875751
1.31814
1.76597
2.22111
2.68546
3.16098
3.64968
4.15367
4.67513
5.21636
5.7798
6.36802
6.98375
7.62996
8.3098
9.02671
9.78446
10.5871
11.4393
12.3459
13.3127
14.346
15.4528
16.6414
17.9212
19.3031
20.7997
22.4261
24.2
26.1429
28.2807
30.6454
33.2765
36.2241
39.5518
43.3426
47.7059
52.7895
58.7976
66.0197
74.8791
86.0165
100.441
119.813
146.984
187.04
249.119
348.385
500
0
0.653209
1.30911
1.9704
2.63982
3.32015
4.01423
4.72498
5.45541
6.20864
6.98796
7.79678
8.63872
9.51761
10.4375
11.4029
12.4183
13.489
14.6205
15.8188
17.0907
18.4437
19.8859
21.4268
23.0769
24.848
26.7541
28.8109
31.0371
33.4542
36.0882
38.9699
42.1365
45.6336
49.5175
53.8584
58.7454
64.293
70.6506
78.0165
86.6593
96.9493
109.41
124.795
144.219
169.351
202.711
248.023
310.321
394.643
500
0
0.866753
1.73707
2.61453
3.50276
4.40544
5.32634
6.2693
7.23832
8.23755
9.27129
10.3441
11.4607
12.6262
13.8459
15.1257
16.4716
17.8905
19.3896
20.9769
22.6612
24.4521
26.3606
28.3986
30.5798
32.9198
35.4362
38.1495
41.0834
44.2656
47.7288
51.512
55.6619
60.2353
65.3015
70.9467
77.2786
84.4337
92.5872
101.967
112.874
125.709
141.016
159.536
182.289
210.661
246.488
292.019
349.501
419.868
500
0
1.07673
2.15788
3.2479
4.35126
5.47253
6.61637
7.78756
8.99104
10.2319
11.5156
12.8476
14.2338
15.6805
17.1943
18.7822
20.452
22.2118
24.0706
26.0381
28.125
30.3432
32.7056
35.2271
37.924
40.8151
43.9215
47.2676
50.8815
54.7961
59.0496
63.6875
68.764
74.3441
80.5068
87.3486
94.9888
103.576
113.298
124.391
137.16
151.997
169.408
190.046
214.74
244.517
280.563
324.065
375.796
435.328
500
0
1.2823
2.56984
3.86791
5.18184
6.51704
7.87905
9.27353
10.7064
12.1836
13.7115
15.2968
16.9464
18.6677
20.4685
22.357
24.3424
26.4342
28.6429
30.9799
33.4576
36.0898
38.8917
41.8802
45.0742
48.4951
52.1672
56.1179
60.3792
64.9876
69.986
75.4246
81.3626
87.8706
95.0331
102.952
111.752
121.584
132.636
145.139
159.38
175.712
194.575
216.499
242.109
272.104
307.183
347.883
394.292
445.649
500
0
1.48261
2.97127
4.47206
5.99114
7.53474
9.10924
10.7212
12.3773
14.0845
15.8501
17.6818
19.5874
21.5754
23.6548
25.8351
28.1264
30.5397
33.087
35.781
38.6358
41.6669
44.8913
48.3278
51.9976
55.9241
60.1341
64.6578
69.5296
74.7893
80.4824
86.6624
93.3914
100.743
108.803
117.675
127.483
138.374
150.525
164.151
179.507
196.898
216.682
239.266
265.094
294.609
328.184
365.992
407.84
452.977
500
0
1.67687
3.36056
5.05793
6.77592
8.52155
10.302
12.1246
13.997
15.927
17.9228
19.9928
22.146
24.3919
26.7403
29.2021
31.7883
34.5114
37.3843
40.4212
43.6378
47.0507
50.6787
54.5423
58.6642
63.0697
67.7875
72.8496
78.2925
84.1575
90.4922
97.3513
104.798
112.906
121.761
131.463
142.131
153.902
166.939
181.432
197.599
215.692
235.989
258.789
284.391
313.056
344.95
380.061
418.1
458.418
500
0
1.8643
3.73616
5.62319
7.53305
9.47354
11.4526
13.4784
15.5592
17.7038
19.9211
22.2205
24.6119
27.1057
29.7126
32.4445
35.3136
38.3332
41.5175
44.882
48.4433
52.2196
56.2307
60.4985
65.0471
69.9032
75.0967
80.6608
86.6332
93.0561
99.9777
107.453
115.544
124.323
133.872
144.286
155.676
168.165
181.899
197.038
213.766
232.281
252.793
275.512
300.626
328.274
358.501
391.204
426.08
462.596
500
0
2.04417
4.09661
6.1656
8.25955
10.387
12.5565
14.777
17.0576
19.4078
21.8373
24.3564
26.9756
29.7062
32.5601
35.5497
38.6883
41.9903
45.4707
49.146
53.0339
57.1536
61.526
66.174
71.1226
76.3995
82.0353
88.064
94.5235
101.456
108.91
116.938
125.602
134.969
145.117
156.135
168.121
181.185
195.452
211.057
228.147
246.874
267.391
289.839
314.327
340.915
369.576
400.172
432.42
465.886
500
0
2.21578
4.44048
6.68307
8.9526
11.2582
13.6094
16.0155
18.4865
21.0325
23.664
26.392
29.2278
32.1836
35.2718
38.5058
41.8998
45.4689
49.229
53.1974
57.3928
61.835
66.5458
71.5489
76.8698
82.5369
88.581
95.0364
101.941
109.336
117.268
125.789
134.956
144.834
155.494
167.016
179.487
193.002
207.667
223.592
240.891
259.678
280.06
302.125
325.929
351.481
378.718
407.489
437.544
468.527
500
0
2.37846
4.76646
7.17359
9.60952
12.0841
14.6072
17.1891
19.8404
22.5717
25.3943
28.3197
31.3602
34.5284
37.8377
41.302
44.9363
48.7564
52.7789
57.022
61.5047
66.2478
71.2735
76.6059
82.271
88.2973
94.7157
101.56
108.867
116.678
125.037
133.993
143.6
153.917
165.01
176.948
189.808
203.671
218.623
234.752
252.146
270.887
291.045
312.671
335.785
360.363
386.325
413.523
441.738
470.68
500
0
2.53159
5.0733
7.63529
10.2278
12.8613
15.5462
18.2935
21.1141
24.0196
27.0216
30.1325
33.3649
36.7323
40.2485
43.9283
47.7871
51.8414
56.1085
60.6069
65.3564
70.3781
75.6946
81.3302
87.3112
93.6658
100.425
107.621
115.29
123.472
132.209
141.546
151.534
162.226
173.68
185.959
199.126
213.251
228.402
244.649
262.055
280.679
300.563
321.731
344.178
367.861
392.695
418.541
445.207
472.453
500
0
2.6746
5.35986
8.06646
10.8052
13.587
16.423
19.3245
22.3031
25.3709
28.5401
31.8236
35.2347
38.7872
42.4957
46.3755
50.4424
54.7136
59.2067
63.9408
68.936
74.2136
79.7966
85.7093
91.9778
98.6301
105.696
113.208
121.201
129.712
138.78
148.449
158.763
169.772
181.527
194.08
207.487
221.805
237.087
253.385
270.748
289.211
308.797
329.512
351.333
374.21
398.054
422.738
448.096
473.926
500
0
2.80696
5.62506
8.46548
11.3395
14.2585
17.2342
20.2783
23.403
26.6207
29.9443
33.3871
36.963
40.6862
44.5718
48.6354
52.8937
57.3638
62.064
67.0136
72.2331
77.7438
83.5689
89.7325
96.2606
103.181
110.522
118.315
126.594
135.394
144.751
154.706
165.299
176.573
188.574
201.348
214.939
229.394
244.754
261.059
278.34
296.619
315.904
336.186
357.434
379.591
402.572
426.261
450.512
475.156
500
0
2.92818
5.86794
8.8309
11.8288
14.8734
17.9769
21.1515
24.4097
27.7646
31.2293
34.8177
38.5439
42.4227
46.4697
50.7008
55.133
59.7838
64.6719
69.8167
75.2388
80.9598
87.0027
93.3914
100.152
107.31
114.895
122.937
131.467
140.518
150.125
160.324
171.152
182.648
194.85
207.797
221.528
236.077
251.477
267.756
284.934
303.021
322.014
341.894
362.625
384.149
406.382
429.221
452.538
476.184
500
0
3.03782
6.08761
9.16139
12.2713
15.4295
18.6485
21.941
25.3199
28.7986
32.3907
36.1103
39.9721
43.9912
48.1835
52.5652
57.1536
61.9667
67.0231
72.3425
77.9456
83.8541
90.0906
96.679
103.644
111.013
118.812
127.071
135.819
145.087
154.908
165.314
176.339
188.017
200.381
213.464
227.298
241.909
257.322
273.556
290.62
308.517
327.236
346.752
367.025
387.996
409.588
431.704
454.232
477.044
500
0
3.13549
6.28329
9.45577
12.6654
15.9248
19.2466
22.6441
26.1304
29.7192
33.4245
37.2608
41.243
45.3866
49.7077
54.2229
58.9497
63.9061
69.1112
74.5847
80.3472
86.4203
92.8266
99.5896
106.734
114.285
122.27
130.715
139.65
149.103
159.105
169.684
180.873
192.699
205.193
218.382
232.29
246.939
262.347
278.524
295.474
313.192
331.662
350.854
370.727
391.223
412.268
433.776
455.644
477.759
500
0
3.22083
6.45428
9.71301
13.0098
16.3575
19.7692
23.2583
26.8383
30.5232
34.3273
38.2653
42.3525
46.6045
51.0377
55.669
60.516
65.597
70.931
76.5378
82.4381
88.6533
95.2059
102.119
109.417
117.124
125.266
133.87
142.963
152.571
162.723
173.447
184.768
196.715
209.311
222.58
236.541
251.211
266.602
282.719
299.56
317.115
335.364
354.276
373.806
393.9
414.487
435.487
456.808
478.349
500
0
3.29355
6.59998
9.93219
13.3032
16.7262
20.2144
23.7815
27.4413
31.208
35.0962
39.1207
43.2971
47.6412
52.1697
56.8995
61.8484
67.0348
72.4779
78.1974
84.214
90.5491
97.2247
104.264
111.69
119.528
127.801
136.537
145.76
155.496
165.771
176.611
188.039
200.081
212.756
226.085
240.083
254.763
270.131
286.19
302.932
320.345
338.404
357.078
376.322
396.082
416.293
436.878
457.754
478.827
500
0
3.3534
6.71988
10.1126
13.5447
17.0295
20.5807
24.212
27.9374
31.7714
35.7286
39.8242
44.0739
48.4936
53.1002
57.9108
62.9432
68.216
73.7483
79.56
85.6716
92.1043
98.8801
106.022
113.552
121.495
129.875
138.716
148.044
157.881
168.254
179.186
190.698
202.812
215.548
228.921
242.944
257.626
272.971
288.977
305.635
322.927
340.831
359.31
378.323
397.815
417.724
437.979
458.501
479.205
500
0
3.40017
6.81357
10.2535
13.7333
17.2666
20.8669
24.5484
28.325
32.2115
36.2226
40.3737
44.6805
49.1592
53.8267
58.7002
63.7977
69.1377
74.7394
80.6227
86.8079
93.3164
100.17
107.39
115.001
123.026
131.487
140.41
149.817
159.732
170.179
181.18
192.755
204.923
217.703
231.107
245.146
259.827
275.15
291.112
307.702
324.9
342.681
361.01
379.844
399.131
418.81
438.814
459.067
479.491
500
0
3.43369
6.88073
10.3545
13.8686
17.4365
21.0721
24.7894
28.6028
32.5269
36.5766
40.7674
45.1151
49.6361
54.3471
59.2657
64.4097
69.7977
75.449
81.3833
87.6211
94.1836
101.092
108.369
116.037
124.119
132.638
141.618
151.082
161.052
171.551
182.599
194.218
206.424
219.233
232.657
246.706
261.384
276.691
292.621
309.16
326.29
343.983
362.205
380.912
400.053
419.571
439.398
459.464
479.691
500
0
3.45385
6.92113
10.4153
13.9499
17.5387
21.1955
24.9344
28.7699
32.7166
36.7895
41.0042
45.3765
49.9228
54.6601
59.6056
64.7775
70.1944
75.8754
81.8404
88.1097
94.7045
101.646
108.957
116.659
124.776
133.329
142.343
151.84
161.843
172.372
183.449
195.093
207.321
220.147
233.584
247.638
262.314
277.61
293.519
310.028
327.116
344.757
362.914
381.546
400.601
420.022
439.744
459.699
479.81
500
0
3.46059
6.93463
10.4356
13.9771
17.5728
21.2367
24.9829
28.8257
32.7799
36.8606
41.0833
45.4638
50.0186
54.7646
59.7192
64.9004
70.3269
76.0179
81.9931
88.2729
94.8785
101.831
109.153
116.867
124.995
133.56
142.585
152.093
162.106
172.646
183.733
195.385
207.62
220.452
233.892
247.948
262.623
277.915
293.817
310.316
327.391
345.014
363.15
381.756
400.782
420.171
439.859
459.776
479.849
500
0
3.45388
6.92118
10.4154
13.95
17.5388
21.1956
24.9346
28.7701
32.7168
36.7898
41.0045
45.3769
49.9232
54.6605
59.6061
64.7781
70.195
75.876
81.841
88.1105
94.7053
101.647
108.958
116.66
124.776
133.33
142.344
151.841
161.844
172.373
183.451
195.094
207.322
220.148
233.585
247.639
262.315
277.611
293.52
310.029
327.117
344.757
362.915
381.546
400.601
420.022
439.745
459.699
479.81
500
0
3.43374
6.88083
10.3547
13.8688
17.4367
21.0724
24.7898
28.6032
32.5274
36.5772
40.7681
45.1159
49.6369
54.348
59.2666
64.4107
69.7988
75.4502
81.3846
87.6226
94.1851
101.094
108.371
116.039
124.121
132.64
141.62
151.084
161.054
171.553
182.602
194.22
206.426
219.235
232.66
246.709
261.387
276.693
292.623
309.162
326.291
343.985
362.206
380.913
400.055
419.572
439.399
459.464
479.691
500
0
3.40024
6.81372
10.2537
13.7336
17.267
20.8674
24.5489
28.3257
32.2122
36.2235
40.3746
44.6816
49.1604
53.828
58.7017
63.7993
69.1394
74.7413
80.6247
86.8101
93.3186
100.172
107.393
115.004
123.028
131.49
140.413
149.82
159.736
170.183
181.183
192.758
204.927
217.706
231.11
245.149
259.83
275.153
291.115
307.704
324.902
342.683
361.012
379.846
399.132
418.811
438.815
459.068
479.491
500
0
3.35349
6.72007
10.1128
13.5451
17.03
20.5813
24.2127
27.9383
31.7724
35.7297
39.8255
44.0753
48.4952
53.1019
57.9127
62.9453
68.2183
73.7508
79.5626
85.6743
92.1072
98.8832
106.025
113.555
121.499
129.879
138.72
148.048
157.886
168.259
179.19
190.703
202.817
215.552
228.925
242.948
257.63
272.975
288.981
305.638
322.931
340.834
359.313
378.325
397.817
417.726
437.981
458.502
479.205
500
0
3.29367
6.60021
9.93254
13.3037
16.7268
20.2152
23.7824
27.4424
31.2092
35.0975
39.1222
43.2988
47.6431
52.1718
56.9018
61.8509
67.0376
72.4809
78.2006
84.2175
90.5527
97.2286
104.268
111.694
119.532
127.806
136.542
145.765
155.501
165.776
176.616
188.045
200.086
212.762
226.09
240.089
254.768
270.137
286.195
302.937
320.349
338.408
357.082
376.326
396.085
416.295
436.88
457.755
478.827
500
0
3.22096
6.45455
9.71342
13.0103
16.3582
19.7701
23.2593
26.8395
30.5246
34.3289
38.2671
42.3545
46.6068
51.0402
55.6717
60.519
65.6002
70.9344
76.5415
82.4421
88.6576
95.2104
102.124
109.422
117.129
125.272
133.876
142.969
152.577
162.73
173.453
184.775
196.721
209.318
222.586
236.547
251.218
266.608
282.725
299.566
317.12
335.369
354.28
373.81
393.903
414.49
435.489
456.81
478.349
500
0
3.13564
6.28359
9.45624
12.666
15.9256
19.2476
22.6453
26.1318
29.7208
33.4263
37.2628
41.2453
45.3891
49.7105
54.226
58.953
63.9098
69.1151
74.5889
80.3517
86.4251
92.8317
99.595
106.74
114.291
122.276
130.722
139.657
149.11
159.112
169.692
180.88
192.707
205.201
218.389
232.297
246.946
262.354
278.531
295.48
313.198
331.667
350.859
370.731
391.227
412.271
433.778
455.646
477.76
500
0
3.03799
6.08795
9.1619
12.272
15.4304
18.6496
21.9423
25.3214
28.8003
32.3927
36.1125
39.9746
43.994
48.1865
52.5686
57.1573
61.9707
67.0274
72.3472
77.9506
83.8594
90.0962
96.685
103.651
111.02
118.819
127.078
135.826
145.095
154.916
165.322
176.347
188.025
200.39
213.473
227.306
241.917
257.33
273.563
290.628
308.524
327.243
346.758
367.03
388
409.591
431.707
454.234
477.045
500
0
2.92836
5.8683
8.83145
11.8295
14.8744
17.9781
21.1529
24.4114
27.7665
31.2314
34.8201
38.5466
42.4257
46.473
50.7045
55.1369
59.7881
64.6766
69.8217
75.2442
80.9656
87.0088
93.3979
100.158
107.317
114.903
122.945
131.475
140.527
150.134
160.333
171.162
182.658
194.86
207.807
221.537
236.086
251.486
267.765
284.943
303.029
322.021
341.901
362.631
384.154
406.386
429.224
452.54
476.185
500
0
2.80715
5.62544
8.46606
11.3403
14.2595
17.2354
20.2797
23.4047
26.6226
29.9465
33.3897
36.9658
40.6893
44.5752
48.6393
52.8978
57.3683
62.0689
67.019
72.2388
77.75
83.5754
89.7395
96.2679
103.188
110.53
118.324
126.603
135.403
144.761
154.715
165.309
176.583
188.585
201.358
214.949
229.404
244.764
261.068
278.349
296.627
315.912
336.193
357.44
379.596
402.576
426.264
450.515
475.157
500
0
2.6748
5.36025
8.06706
10.806
13.588
16.4242
19.326
22.3049
25.3729
28.5424
31.8262
35.2376
38.7905
42.4993
46.3794
50.4468
54.7183
59.2118
63.9463
68.9419
74.22
79.8034
85.7165
91.9854
98.6381
105.705
113.217
121.21
129.721
138.79
148.459
158.774
169.783
181.538
194.091
207.498
221.815
237.097
253.396
270.758
289.22
308.806
329.52
351.34
374.216
398.058
422.741
448.098
473.927
500
0
2.53179
5.0737
7.6359
10.2287
12.8623
15.5475
18.295
21.1159
24.0216
27.024
30.1351
33.3679
36.7356
40.2522
43.9323
47.7915
51.8462
56.1137
60.6126
65.3625
70.3846
75.7016
81.3376
87.319
93.6741
100.433
107.63
115.3
123.482
132.219
141.557
151.545
162.237
173.692
185.97
199.138
213.262
228.414
244.66
262.066
280.689
300.572
321.739
344.185
367.868
392.7
418.545
445.21
472.455
500
0
2.37866
4.76686
7.1742
9.61035
12.0851
14.6085
17.1907
19.8422
22.5738
25.3966
28.3224
31.3632
34.5318
37.8414
41.3061
44.9408
48.7612
52.7842
57.0277
61.5109
66.2544
71.2806
76.6134
82.279
88.3057
94.7246
101.569
108.877
116.688
125.047
134.004
143.611
153.929
165.022
176.96
189.82
203.683
218.635
234.764
252.158
270.898
291.055
312.681
335.794
360.37
386.331
413.528
441.741
470.681
500
0
2.21597
4.44087
6.68367
8.95341
11.2593
13.6106
16.017
18.4883
21.0346
23.6664
26.3946
29.2308
32.1869
35.2755
38.5099
41.9043
45.4737
49.2342
53.2031
57.3989
61.8415
66.5528
71.5563
76.8777
82.5453
88.5899
95.0457
101.95
109.346
117.278
125.8
134.967
144.846
155.506
167.028
179.499
193.015
207.68
223.604
240.902
259.689
280.07
302.135
325.938
351.489
378.724
407.494
437.547
468.529
500
0
2.04436
4.09699
6.16619
8.26035
10.388
12.5577
14.7785
17.0594
19.4098
21.8396
24.3589
26.9785
29.7095
32.5637
35.5536
38.6926
41.995
45.4758
49.1515
53.0399
57.16
61.5329
66.1813
71.1303
76.4077
82.044
88.0731
94.5331
101.466
108.92
116.949
125.613
134.981
145.129
156.147
168.133
181.198
195.465
211.07
228.159
246.886
267.402
289.849
314.336
340.923
369.583
400.178
432.424
465.888
500
0
1.86448
3.73653
5.62375
7.53381
9.4745
11.4538
13.4798
15.5609
17.7057
19.9233
22.223
24.6147
27.1088
29.7161
32.4482
35.3177
38.3377
41.5224
44.8873
48.449
52.2257
56.2373
60.5055
65.0546
69.9112
75.1051
80.6697
86.6425
93.0659
99.9879
107.463
115.555
124.334
133.884
144.299
155.688
168.178
181.911
197.051
213.779
232.293
252.805
275.522
300.636
328.283
358.508
391.209
426.084
462.598
500
0
1.67704
3.3609
5.05846
6.77663
8.52246
10.3031
12.126
13.9986
15.9288
17.9248
19.9951
22.1486
24.3948
26.7435
29.2056
31.7922
34.5156
37.3889
40.4262
43.6431
47.0565
50.6849
54.5489
58.6712
63.0772
67.7955
72.858
78.3013
84.1668
90.5019
97.3615
104.809
112.917
121.772
131.475
142.143
153.914
166.952
181.444
197.611
215.704
236.001
258.8
284.401
313.065
344.958
380.067
418.104
458.42
500
0
1.48276
2.97158
4.47254
5.99179
7.53557
9.11025
10.7224
12.3787
14.0861
15.852
17.6839
19.5898
21.5781
23.6578
25.8383
28.1299
30.5436
33.0912
35.7855
38.6407
41.6722
44.897
48.3339
52.0041
55.931
60.1415
64.6656
69.5378
74.7979
80.4915
86.6719
93.4013
100.753
108.814
117.686
127.494
138.385
150.537
164.163
179.519
196.91
216.694
239.277
265.104
294.619
328.192
365.998
407.844
452.979
500
0
1.28243
2.57012
3.86833
5.18241
6.51777
7.87995
9.27461
10.7076
12.185
13.7132
15.2987
16.9485
18.6701
20.4711
22.3599
24.3456
26.4377
28.6467
30.984
33.462
36.0946
38.8968
41.8857
45.08
48.5013
52.1737
56.1249
60.3865
64.9954
69.9942
75.4332
81.3716
87.88
95.0429
102.962
111.763
121.595
132.648
145.151
159.391
175.724
194.587
216.51
242.119
272.114
307.192
347.89
394.297
445.652
500
0
1.07685
2.15813
3.24826
4.35175
5.47316
6.61714
7.78849
8.99213
10.2332
11.517
12.8492
14.2356
15.6825
17.1965
18.7847
20.4548
22.2148
24.0739
26.0416
28.1288
30.3472
32.71
35.2318
37.9291
40.8205
43.9272
47.2737
50.8879
54.8028
59.0567
63.6951
68.7719
74.3524
80.5154
87.3576
94.9981
103.586
113.308
124.401
137.171
152.008
169.419
190.056
214.75
244.526
280.572
324.072
375.801
435.331
500
0
0.866851
1.73727
2.61483
3.50317
4.40596
5.32697
6.27006
7.23922
8.23858
9.27247
10.3454
11.4622
12.6278
13.8478
15.1277
16.4739
17.893
19.3923
20.9798
22.6643
24.4555
26.3642
28.4024
30.5839
32.9242
35.4409
38.1545
41.0887
44.2712
47.7348
51.5183
55.6685
60.2422
65.3088
70.9543
77.2865
84.4419
92.5957
101.976
112.883
125.718
141.025
159.546
182.298
210.67
246.496
292.026
349.506
419.871
500
0
0.653284
1.30926
1.97063
2.64014
3.32055
4.01472
4.72556
5.45609
6.20943
6.98886
7.7978
8.63986
9.51889
10.4389
11.4044
12.42
13.4909
14.6225
15.821
17.0931
18.4463
19.8887
21.4298
23.08
24.8514
26.7577
28.8148
31.0411
33.4586
36.0928
38.9747
42.1416
45.639
49.5231
53.8643
58.7516
64.2995
70.6574
78.0236
86.6666
96.9569
109.417
124.803
144.227
169.359
202.719
248.029
310.326
394.646
500
0
0.437026
0.875853
1.3183
1.76619
2.22138
2.68579
3.16137
3.65014
4.1542
4.67574
5.21705
5.78058
6.36888
6.98471
7.63102
8.31096
9.02799
9.78584
10.5886
11.4409
12.3477
13.3146
14.348
15.455
16.6437
17.9237
19.3057
20.8025
22.429
24.2031
26.1462
28.2842
30.649
33.2804
36.2281
39.5561
43.347
47.7105
52.7944
58.8027
66.0251
74.8846
86.0222
100.447
119.819
146.99
187.046
249.124
348.388
500
0
0.218965
0.438833
0.660514
0.884925
1.113
1.3457
1.58399
1.82891
2.08148
2.34283
2.6141
2.89651
3.19135
3.50001
3.82395
4.16479
4.52425
4.90421
5.30675
5.73416
6.18897
6.67403
7.19253
7.74809
8.34486
8.9876
9.68184
10.4341
11.2519
12.1444
13.1226
14.1998
15.3925
16.7211
18.2117
19.8974
21.8219
24.0433
26.6406
29.7248
33.4559
38.0737
43.954
51.7201
62.4791
78.3774
104.04
150.736
249.781
500
0
0
0
0
0
0
0
0
0
0
0
0
0
0
0
0
0
0
0
0
0
0
0
0
0
0
0
0
0
0
0
0
0
0
0
0
0
0
0
0
0
0
0
0
0
0
0
0
0
0
250
