# vtk DataFile Version 3.0
ParaView Output
ASCII
DATASET UNSTRUCTURED_GRID
POINTS 1331 double
0 0 0
0.4 0 0
0.8 0 0
1.2 0 0
1.6 0 0
2 0 0
2.4 0 0
2.8 0 0
3.2 0 0
3.6 0 0
4 0 0
0 0.4 0
0.4 0.4 0
0.8 0.4 0
1.2 0.4 0
1.6 0.4 0
2 0.4 0
2.4 0.4 0
2.8 0.4 0
3.2 0.4 0
3.6 0.4 0
4 0.4 0
0 0.8 0
0.4 0.8 0
0.8 0.8 0
1.2 0.8 0
1.6 0.8 0
2 0.8 0
2.4 0.8 0
2.8 0.8 0
3.2 0.8 0
3.6 0.8 0
4 0.8 0
0 1.2 0
0.4 1.2 0
0.8 1.2 0
1.2 1.2 0
1.6 1.2 0
2 1.2 0
2.4 1.2 0
2.8 1.2 0
3.2 1.2 0
3.6 1.2 0
4 1.2 0
0 1.6 0
0.4 1.6 0
0.8 1.6 0
1.2 1.6 0
1.6 1.6 0
2 1.6 0
2.4 1.6 0
2.8 1.6 0
3.2 1.6 0
3.6 1.6 0
4 1.6 0
0 2 0
0.4 2 0
0.8 2 0
1.2 2 0
1.6 2 0
2 2 0
2.4 2 0
2.8 2 0
3.2 2 0
3.6 2 0
4 2 0
0 2.4 0
0.4 2.4 0
0.8 2.4 0
1.2 2.4 0
1.6 2.4 0
2 2.4 0
2.4 2.4 0
2.8 2.4 0
3.2 2.4 0
3.6 2.4 0
4 2.4 0
0 2.8 0
0.4 2.8 0
0.8 2.8 0
1.2 2.8 0
1.6 2.8 0
2 2.8 0
2.4 2.8 0
2.8 2.8 0
3.2 2.8 0
3.6 2.8 0
4 2.8 0
0 3.2 0
0.4 3.2 0
0.8 3.2 0
1.2 3.2 0
1.6 3.2 0
2 3.2 0
2.4 3.2 0
2.8 3.2 0
3.2 3.2 0
3.6 3.2 0
4 3.2 0
0 3.6 0
0.4 3.6 0
0.8 3.6 0
1.2 3.6 0
1.6 3.6 0
2 3.6 0
2.4 3.6 0
2.8 3.6 0
3.2 3.6 0
3.6 3.6 0
4 3.6 0
0 4 0
0.4 4 0
0.8 4 0
1.2 4 0
1.6 4 0
2 4 0
2.4 4 0
2.8 4 0
3.2 4 0
3.6 4 0
4 4 0
0 0 0.4
0.4 0 0.4
0.8 0 0.4
1.2 0 0.4
1.6 0 0.4
2 0 0.4
2.4 0 0.4
2.8 0 0.4
3.2 0 0.4
3.6 0 0.4
4 0 0.4
0 0.4 0.4
0.4 0.4 0.4
0.8 0.400001 0.4
1.2 0.4 0.4
1.6 0.4 0.400001
2 0.4 0.4
2.4 0.4 0.4
2.8 0.4 0.4
3.2 0.4 0.4
3.6 0.4 0.4
4 0.4 0.4
0 0.8 0.4
0.400001 0.800001 0.4
0.8 0.8 0.4
1.2 0.8 0.4
1.6 0.800001 0.4
2 0.8 0.4
2.4 0.8 0.4
2.8 0.8 0.4
3.2 0.8 0.4
3.6 0.8 0.4
4 0.8 0.4
0 1.2 0.4
0.4 1.2 0.4
0.8 1.2 0.4
1.2 1.2 0.4
1.6 1.2 0.4
2 1.2 0.4
2.4 1.2 0.4
2.8 1.2 0.4
3.2 1.2 0.4
3.6 1.2 0.4
4 1.2 0.4
0 1.6 0.4
0.4 1.6 0.4
0.8 1.6 0.4
1.2 1.6 0.4
1.6 1.6 0.4
2 1.6 0.4
2.4 1.6 0.4
2.8 1.6 0.4
3.2 1.6 0.4
3.6 1.6 0.4
4 1.6 0.4
0 2 0.4
0.400001 2 0.4
0.8 2 0.4
1.2 2 0.4
1.6 2 0.4
2 2 0.4
2.4 2 0.4
2.8 2 0.4
3.2 2 0.4
3.6 2 0.4
4 2 0.4
0 2.4 0.4
0.4 2.4 0.4
0.8 2.4 0.4
1.2 2.4 0.4
1.6 2.4 0.4
2 2.4 0.4
2.4 2.4 0.4
2.8 2.4 0.4
3.2 2.4 0.4
3.6 2.4 0.4
4 2.4 0.4
0 2.8 0.4
0.4 2.8 0.4
0.8 2.8 0.4
1.2 2.8 0.4
1.6 2.8 0.4
2 2.8 0.4
2.4 2.8 0.4
2.8 2.8 0.4
3.2 2.8 0.4
3.6 2.8 0.4
4 2.8 0.4
0 3.2 0.4
0.4 3.2 0.4
0.8 3.2 0.4
1.2 3.2 0.4
1.6 3.2 0.4
2 3.2 0.4
2.4 3.2 0.4
2.8 3.2 0.4
3.2 3.2 0.4
3.6 3.2 0.4
4 3.2 0.4
0 3.6 0.4
0.4 3.6 0.4
0.8 3.6 0.4
1.2 3.6 0.4
1.6 3.6 0.4
2 3.6 0.4
2.4 3.6 0.4
2.8 3.6 0.4
3.2 3.6 0.4
3.6 3.6 0.4
4 3.6 0.4
0 4 0.4
0.4 4 0.4
0.8 4 0.4
1.2 4 0.4
1.6 4 0.4
2 4 0.4
2.4 4 0.4
2.8 4 0.4
3.2 4 0.4
3.6 4 0.4
4 4 0.4
0 0 0.8
0.4 0 0.8
0.8 0 0.8
1.2 0 0.8
1.6 0 0.8
2 0 0.8
2.4 0 0.8
2.8 0 0.8
3.2 0 0.8
3.6 0 0.8
4 0 0.8
0 0.4 0.8
0.4 0.400001 0.8
0.800001 0.400001 0.8
1.2 0.4 0.8
1.6 0.400001 0.800001
2 0.4 0.8
2.4 0.4 0.8
2.8 0.4 0.8
3.2 0.4 0.8
3.6 0.4 0.8
4 0.4 0.8
0 0.8 0.8
0.400001 0.800001 0.8
0.8 0.8 0.8
1.2 0.8 0.8
1.6 0.800001 0.8
2 0.8 0.8
2.4 0.8 0.8
2.8 0.8 0.8
3.2 0.8 0.8
3.6 0.8 0.8
4 0.8 0.8
0 1.2 0.8
0.4 1.2 0.8
0.8 1.2 0.8
1.2 1.2 0.8
1.6 1.2 0.8
2 1.2 0.8
2.4 1.2 0.8
2.8 1.2 0.8
3.2 1.2 0.8
3.6 1.2 0.8
4 1.2 0.8
0 1.6 0.8
0.400001 1.6 0.8
0.8 1.6 0.8
1.2 1.6 0.8
1.6 1.6 0.8
2 1.6 0.8
2.4 1.6 0.8
2.8 1.6 0.8
3.2 1.6 0.8
3.6 1.6 0.8
4 1.6 0.8
0 2 0.8
0.4 2 0.8
0.800001 2 0.8
1.2 2 0.8
1.6 2 0.8
2 2 0.8
2.4 2 0.8
2.8 2 0.8
3.2 2 0.8
3.6 2 0.8
4 2 0.8
0 2.4 0.8
0.4 2.4 0.8
0.8 2.4 0.8
1.2 2.4 0.8
1.6 2.4 0.8
2 2.4 0.8
2.4 2.4 0.8
2.8 2.4 0.8
3.2 2.4 0.8
3.6 2.4 0.8
4 2.4 0.8
0 2.8 0.8
0.4 2.8 0.8
0.8 2.8 0.8
1.2 2.8 0.8
1.6 2.8 0.8
2 2.8 0.8
2.4 2.8 0.8
2.8 2.8 0.8
3.2 2.8 0.8
3.6 2.8 0.8
4 2.8 0.8
0 3.2 0.8
0.4 3.2 0.8
0.8 3.2 0.8
1.2 3.2 0.8
1.6 3.2 0.8
2 3.2 0.8
2.4 3.2 0.8
2.8 3.2 0.8
3.2 3.2 0.8
3.6 3.2 0.8
4 3.2 0.8
0 3.6 0.8
0.4 3.6 0.8
0.8 3.6 0.8
1.2 3.6 0.8
1.6 3.6 0.8
2 3.6 0.8
2.4 3.6 0.8
2.8 3.6 0.8
3.2 3.6 0.8
3.6 3.6 0.8
4 3.6 0.8
0 4 0.8
0.4 4 0.8
0.8 4 0.8
1.2 4 0.8
1.6 4 0.8
2 4 0.8
2.4 4 0.8
2.8 4 0.8
3.2 4 0.8
3.6 4 0.8
4 4 0.8
0 0 1.2
0.4 0 1.2
0.8 0 1.2
1.2 0 1.2
1.6 0 1.2
2 0 1.2
2.4 0 1.2
2.8 0 1.2
3.2 0 1.2
3.6 0 1.2
4 0 1.2
0 0.4 1.2
0.400001 0.400001 1.2
0.8 0.4 1.2
1.2 0.4 1.2
1.6 0.400001 1.2
2 0.4 1.2
2.4 0.4 1.2
2.8 0.4 1.2
3.2 0.4 1.2
3.6 0.4 1.2
4 0.4 1.2
0 0.8 1.2
0.4 0.8 1.2
0.8 0.8 1.2
1.2 0.8 1.2
1.6 0.8 1.2
2 0.8 1.2
2.4 0.8 1.2
2.8 0.8 1.2
3.2 0.8 1.2
3.6 0.8 1.2
4 0.8 1.2
0 1.2 1.2
0.4 1.2 1.2
0.8 1.2 1.2
1.2 1.2 1.2
1.6 1.2 1.2
2 1.2 1.2
2.4 1.2 1.2
2.8 1.2 1.2
3.2 1.2 1.2
3.6 1.2 1.2
4 1.2 1.2
0 1.6 1.2
0.4 1.6 1.2
0.800001 1.6 1.2
1.2 1.6 1.2
1.6 1.6 1.2
2 1.6 1.2
2.4 1.6 1.2
2.8 1.6 1.2
3.2 1.6 1.2
3.6 1.6 1.2
4 1.6 1.2
0 2 1.2
0.400001 2 1.2
0.800001 2 1.2
1.2 2 1.2
1.6 2 1.2
2 2 1.2
2.4 2 1.2
2.8 2 1.2
3.2 2 1.2
3.6 2 1.2
4 2 1.2
0 2.4 1.2
0.4 2.4 1.2
0.8 2.4 1.2
1.2 2.4 1.2
1.6 2.4 1.2
2 2.4 1.2
2.4 2.4 1.2
2.8 2.4 1.2
3.2 2.4 1.2
3.6 2.4 1.2
4 2.4 1.2
0 2.8 1.2
0.4 2.8 1.2
0.8 2.8 1.2
1.2 2.8 1.2
1.6 2.8 1.2
2 2.8 1.2
2.4 2.8 1.2
2.8 2.8 1.2
3.2 2.8 1.2
3.6 2.8 1.2
4 2.8 1.2
0 3.2 1.2
0.4 3.2 1.2
0.8 3.2 1.2
1.2 3.2 1.2
1.6 3.2 1.2
2 3.2 1.2
2.4 3.2 1.2
2.8 3.2 1.2
3.2 3.2 1.2
3.6 3.2 1.2
4 3.2 1.2
0 3.6 1.2
0.4 3.6 1.2
0.8 3.6 1.2
1.2 3.6 1.2
1.6 3.6 1.2
2 3.6 1.2
2.4 3.6 1.2
2.8 3.6 1.2
3.2 3.6 1.2
3.6 3.6 1.2
4 3.6 1.2
0 4 1.2
0.4 4 1.2
0.8 4 1.2
1.2 4 1.2
1.6 4 1.2
2 4 1.2
2.4 4 1.2
2.8 4 1.2
3.2 4 1.2
3.6 4 1.2
4 4 1.2
0 0 1.6
0.4 0 1.6
0.8 0 1.6
1.2 0 1.6
1.6 0 1.6
2 0 1.6
2.4 0 1.6
2.8 0 1.6
3.2 0 1.6
3.6 0 1.6
4 0 1.6
0 0.4 1.6
0.400001 0.400001 1.6
0.800001 0.400001 1.6
1.2 0.4 1.6
1.6 0.400001 1.6
2 0.4 1.6
2.4 0.4 1.6
2.8 0.4 1.6
3.2 0.4 1.6
3.6 0.4 1.6
4 0.4 1.6
0 0.8 1.6
0.400002 0.800001 1.6
0.800001 0.8 1.6
1.2 0.8 1.6
1.6 0.8 1.6
2 0.8 1.6
2.4 0.8 1.6
2.8 0.8 1.6
3.2 0.8 1.6
3.6 0.8 1.6
4 0.8 1.6
0 1.2 1.6
0.4 1.2 1.6
0.800001 1.2 1.6
1.2 1.2 1.6
1.6 1.2 1.6
2 1.2 1.6
2.4 1.2 1.6
2.8 1.2 1.6
3.2 1.2 1.6
3.6 1.2 1.6
4 1.2 1.6
0 1.6 1.6
0.400001 1.6 1.6
0.8 1.6 1.6
1.2 1.6 1.6
1.6 1.6 1.6
2 1.6 1.6
2.4 1.6 1.6
2.8 1.6 1.6
3.2 1.6 1.6
3.6 1.6 1.6
4 1.6 1.6
0 2 1.6
0.4 2 1.6
0.8 2 1.6
1.2 2 1.6
1.6 2 1.6
2 2 1.6
2.4 2 1.6
2.8 2 1.6
3.2 2 1.6
3.6 2 1.6
4 2 1.6
0 2.4 1.6
0.4 2.4 1.6
0.8 2.4 1.6
1.2 2.4 1.6
1.6 2.4 1.6
2 2.4 1.6
2.4 2.4 1.6
2.8 2.4 1.6
3.2 2.4 1.6
3.6 2.4 1.6
4 2.4 1.6
0 2.8 1.6
0.4 2.8 1.6
0.8 2.8 1.6
1.2 2.8 1.6
1.6 2.8 1.6
2 2.8 1.6
2.4 2.8 1.6
2.8 2.8 1.6
3.2 2.8 1.6
3.6 2.8 1.6
4 2.8 1.6
0 3.2 1.6
0.4 3.2 1.6
0.8 3.2 1.6
1.2 3.2 1.6
1.6 3.2 1.6
2 3.2 1.6
2.4 3.2 1.6
2.8 3.2 1.6
3.2 3.2 1.6
3.6 3.2 1.6
4 3.2 1.6
0 3.6 1.6
0.4 3.6 1.6
0.8 3.6 1.6
1.2 3.6 1.6
1.6 3.6 1.6
2 3.6 1.6
2.4 3.6 1.6
2.8 3.6 1.6
3.2 3.6 1.6
3.6 3.6 1.6
4 3.6 1.6
0 4 1.6
0.4 4 1.6
0.8 4 1.6
1.2 4 1.6
1.6 4 1.6
2 4 1.6
2.4 4 1.6
2.8 4 1.6
3.2 4 1.6
3.6 4 1.6
4 4 1.6
0 0 2
0.4 0 2
0.8 0 2
1.2 0 2
1.6 0 2
2 0 2
2.4 0 2
2.8 0 2
3.2 0 2
3.6 0 2
4 0 2
0 0.4 2
0.400001 0.400001 2
0.800001 0.4 2
1.2 0.4 2
1.6 0.400001 2
2 0.4 2
2.4 0.4 2
2.8 0.4 2
3.2 0.4 2
3.6 0.4 2
4 0.4 2
0 0.8 2
0.400001 0.8 2
0.8 0.8 2
1.2 0.8 2
1.6 0.8 2
2 0.8 2
2.4 0.8 2
2.8 0.8 2
3.2 0.8 2
3.6 0.8 2
4 0.8 2
0 1.2 2
0.4 1.2 2
0.8 1.2 2
1.2 1.2 2
1.6 1.2 2
2 1.2 2
2.4 1.2 2
2.8 1.2 2
3.2 1.2 2
3.6 1.2 2
4 1.2 2
0 1.6 2
0.400001 1.6 2
0.8 1.6 2
1.2 1.6 2
1.6 1.6 2
2 1.6 2
2.4 1.6 2
2.8 1.6 2
3.2 1.6 2
3.6 1.6 2
4 1.6 2
0 2 2
0.4 2 2
0.8 2 2
1.2 2 2
1.6 2 2
2 2 2
2.4 2 2
2.8 2 2
3.2 2 2
3.6 2 2
4 2 2
0 2.4 2
0.4 2.4 2
0.800001 2.4 2
1.2 2.4 2
1.6 2.4 2
2 2.4 2
2.4 2.4 2
2.8 2.4 2
3.2 2.4 2
3.6 2.4 2
4 2.4 2
0 2.8 2
0.4 2.8 2
0.8 2.8 2
1.2 2.8 2
1.6 2.8 2
2 2.8 2
2.4 2.8 2
2.8 2.8 2
3.2 2.8 2
3.6 2.8 2
4 2.8 2
0 3.2 2
0.4 3.2 2
0.8 3.2 2
1.2 3.2 2
1.6 3.2 2
2 3.2 2
2.4 3.2 2
2.8 3.2 2
3.2 3.2 2
3.6 3.2 2
4 3.2 2
0 3.6 2
0.4 3.6 2
0.8 3.6 2
1.2 3.6 2
1.6 3.6 2
2 3.6 2
2.4 3.6 2
2.8 3.6 2
3.2 3.6 2
3.6 3.6 2
4 3.6 2
0 4 2
0.4 4 2
0.8 4 2
1.2 4 2
1.6 4 2
2 4 2
2.4 4 2
2.8 4 2
3.2 4 2
3.6 4 2
4 4 2
0 0 2.4
0.4 0 2.4
0.8 0 2.4
1.2 0 2.4
1.6 0 2.4
2 0 2.4
2.4 0 2.4
2.8 0 2.4
3.2 0 2.4
3.6 0 2.4
4 0 2.4
0 0.4 2.4
0.4 0.4 2.4
0.8 0.4 2.4
1.2 0.4 2.4
1.6 0.4 2.4
2 0.4 2.4
2.4 0.4 2.4
2.8 0.4 2.4
3.2 0.4 2.4
3.6 0.4 2.4
4 0.4 2.4
0 0.8 2.4
0.4 0.8 2.4
0.8 0.8 2.4
1.2 0.8 2.4
1.6 0.8 2.4
2 0.8 2.4
2.4 0.8 2.4
2.8 0.8 2.4
3.2 0.8 2.4
3.6 0.8 2.4
4 0.8 2.4
0 1.2 2.4
0.4 1.2 2.4
0.8 1.2 2.4
1.2 1.2 2.4
1.6 1.2 2.4
2 1.2 2.4
2.4 1.2 2.4
2.8 1.2 2.4
3.2 1.2 2.4
3.6 1.2 2.4
4 1.2 2.4
0 1.6 2.4
0.4 1.6 2.4
0.8 1.6 2.4
1.2 1.6 2.4
1.6 1.6 2.4
2 1.6 2.4
2.4 1.6 2.4
2.8 1.6 2.4
3.2 1.6 2.4
3.6 1.6 2.4
4 1.6 2.4
0 2 2.4
0.4 2 2.4
0.800001 2 2.4
1.2 2 2.4
1.6 2 2.4
2 2 2.4
2.4 2 2.4
2.8 2 2.4
3.2 2 2.4
3.6 2 2.4
4 2 2.4
0 2.4 2.4
0.4 2.4 2.4
0.8 2.4 2.4
1.2 2.4 2.4
1.6 2.4 2.4
2 2.4 2.4
2.4 2.4 2.4
2.8 2.4 2.4
3.2 2.4 2.4
3.6 2.4 2.4
4 2.4 2.4
0 2.8 2.4
0.4 2.8 2.4
0.8 2.8 2.4
1.2 2.8 2.4
1.6 2.8 2.4
2 2.8 2.4
2.4 2.8 2.4
2.8 2.8 2.4
3.2 2.8 2.4
3.6 2.8 2.4
4 2.8 2.4
0 3.2 2.4
0.4 3.2 2.4
0.8 3.2 2.4
1.2 3.2 2.4
1.6 3.2 2.4
2 3.2 2.4
2.4 3.2 2.4
2.8 3.2 2.4
3.2 3.2 2.4
3.6 3.2 2.4
4 3.2 2.4
0 3.6 2.4
0.4 3.6 2.4
0.8 3.6 2.4
1.2 3.6 2.4
1.6 3.6 2.4
2 3.6 2.4
2.4 3.6 2.4
2.8 3.6 2.4
3.2 3.6 2.4
3.6 3.6 2.4
4 3.6 2.4
0 4 2.4
0.4 4 2.4
0.8 4 2.4
1.2 4 2.4
1.6 4 2.4
2 4 2.4
2.4 4 2.4
2.8 4 2.4
3.2 4 2.4
3.6 4 2.4
4 4 2.4
0 0 2.8
0.4 0 2.8
0.8 0 2.8
1.2 0 2.8
1.6 0 2.8
2 0 2.8
2.4 0 2.8
2.8 0 2.8
3.2 0 2.8
3.6 0 2.8
4 0 2.8
0 0.4 2.8
0.400001 0.400001 2.8
0.8 0.4 2.8
1.2 0.4 2.8
1.6 0.4 2.8
2 0.400001 2.8
2.4 0.4 2.8
2.8 0.4 2.8
3.2 0.4 2.8
3.6 0.4 2.8
4 0.4 2.8
0 0.8 2.8
0.400001 0.8 2.8
0.8 0.8 2.8
1.2 0.8 2.8
1.6 0.8 2.8
2 0.8 2.8
2.4 0.8 2.8
2.8 0.8 2.8
3.2 0.8 2.8
3.6 0.8 2.8
4 0.8 2.8
0 1.2 2.8
0.4 1.2 2.8
0.8 1.2 2.8
1.2 1.2 2.8
1.6 1.2 2.8
2 1.2 2.8
2.4 1.2 2.8
2.8 1.2 2.8
3.2 1.2 2.8
3.6 1.2 2.8
4 1.2 2.8
0 1.6 2.8
0.4 1.6 2.8
0.8 1.6 2.8
1.2 1.6 2.8
1.6 1.6 2.8
2 1.6 2.8
2.4 1.6 2.8
2.8 1.6 2.8
3.2 1.6 2.8
3.6 1.6 2.8
4 1.6 2.8
0 2 2.8
0.4 2 2.8
0.8 2 2.8
1.2 2 2.8
1.6 2 2.8
2 2 2.8
2.4 2 2.8
2.8 2 2.8
3.2 2 2.8
3.6 2 2.8
4 2 2.8
0 2.4 2.8
0.4 2.4 2.8
0.8 2.4 2.8
1.2 2.4 2.8
1.6 2.4 2.8
2 2.4 2.8
2.4 2.4 2.8
2.8 2.4 2.8
3.2 2.4 2.8
3.6 2.4 2.8
4 2.4 2.8
0 2.8 2.8
0.4 2.8 2.8
0.8 2.8 2.8
1.2 2.8 2.8
1.6 2.8 2.8
2 2.8 2.8
2.4 2.8 2.8
2.8 2.8 2.8
3.2 2.8 2.8
3.6 2.8 2.8
4 2.8 2.8
0 3.2 2.8
0.4 3.2 2.8
0.8 3.2 2.8
1.2 3.2 2.8
1.6 3.2 2.8
2 3.2 2.8
2.4 3.2 2.8
2.8 3.2 2.8
3.2 3.2 2.8
3.6 3.2 2.8
4 3.2 2.8
0 3.6 2.8
0.4 3.6 2.8
0.8 3.6 2.8
1.2 3.6 2.8
1.6 3.6 2.8
2 3.6 2.8
2.4 3.6 2.8
2.8 3.6 2.8
3.2 3.6 2.8
3.6 3.6 2.8
4 3.6 2.8
0 4 2.8
0.4 4 2.8
0.8 4 2.8
1.2 4 2.8
1.6 4 2.8
2 4 2.8
2.4 4 2.8
2.8 4 2.8
3.2 4 2.8
3.6 4 2.8
4 4 2.8
0 0 3.2
0.4 0 3.2
0.8 0 3.2
1.2 0 3.2
1.6 0 3.2
2 0 3.2
2.4 0 3.2
2.8 0 3.2
3.2 0 3.2
3.6 0 3.2
4 0 3.2
0 0.4 3.2
0.4 0.4 3.2
0.8 0.4 3.2
1.2 0.4 3.2
1.6 0.4 3.2
2 0.4 3.2
2.4 0.4 3.2
2.8 0.4 3.2
3.2 0.4 3.2
3.6 0.4 3.2
4 0.4 3.2
0 0.8 3.2
0.4 0.8 3.2
0.8 0.8 3.2
1.2 0.8 3.2
1.6 0.8 3.2
2 0.8 3.2
2.4 0.8 3.2
2.8 0.8 3.2
3.2 0.8 3.2
3.6 0.8 3.2
4 0.8 3.2
0 1.2 3.2
0.4 1.2 3.2
0.8 1.2 3.2
1.2 1.2 3.2
1.6 1.2 3.2
2 1.2 3.2
2.4 1.2 3.2
2.8 1.2 3.2
3.2 1.2 3.2
3.6 1.2 3.2
4 1.2 3.2
0 1.6 3.2
0.4 1.6 3.2
0.8 1.6 3.2
1.2 1.6 3.2
1.6 1.6 3.2
2 1.6 3.2
2.4 1.6 3.2
2.8 1.6 3.2
3.2 1.6 3.2
3.6 1.6 3.2
4 1.6 3.2
0 2 3.2
0.4 2 3.2
0.8 2 3.2
1.2 2 3.2
1.6 2 3.2
2 2 3.2
2.4 2 3.2
2.8 2 3.2
3.2 2 3.2
3.6 2 3.2
4 2 3.2
0 2.4 3.2
0.4 2.4 3.2
0.800001 2.4 3.2
1.2 2.4 3.2
1.6 2.4 3.2
2 2.4 3.2
2.4 2.4 3.2
2.8 2.4 3.2
3.2 2.4 3.2
3.6 2.4 3.2
4 2.4 3.2
0 2.8 3.2
0.4 2.8 3.2
0.8 2.8 3.2
1.2 2.8 3.2
1.6 2.8 3.2
2 2.8 3.2
2.4 2.8 3.2
2.8 2.8 3.2
3.2 2.8 3.2
3.6 2.8 3.2
4 2.8 3.2
0 3.2 3.2
0.4 3.2 3.2
0.8 3.2 3.2
1.2 3.2 3.2
1.6 3.2 3.2
2 3.2 3.2
2.4 3.2 3.2
2.8 3.2 3.2
3.2 3.2 3.2
3.6 3.2 3.2
4 3.2 3.2
0 3.6 3.2
0.4 3.6 3.2
0.8 3.6 3.2
1.2 3.6 3.2
1.6 3.6 3.2
2 3.6 3.2
2.4 3.6 3.2
2.8 3.6 3.2
3.2 3.6 3.2
3.6 3.6 3.2
4 3.6 3.2
0 4 3.2
0.4 4 3.2
0.8 4 3.2
1.2 4 3.2
1.6 4 3.2
2 4 3.2
2.4 4 3.2
2.8 4 3.2
3.2 4 3.2
3.6 4 3.2
4 4 3.2
0 0 3.6
0.4 0 3.6
0.8 0 3.6
1.2 0 3.6
1.6 0 3.6
2 0 3.6
2.4 0 3.6
2.8 0 3.6
3.2 0 3.6
3.6 0 3.6
4 0 3.6
0 0.4 3.6
0.4 0.4 3.6
0.8 0.4 3.6
1.2 0.4 3.6
1.6 0.4 3.6
2 0.4 3.6
2.4 0.4 3.6
2.8 0.4 3.6
3.2 0.4 3.6
3.6 0.4 3.6
4 0.4 3.6
0 0.8 3.6
0.4 0.8 3.6
0.8 0.8 3.6
1.2 0.8 3.6
1.6 0.8 3.6
2 0.8 3.6
2.4 0.8 3.6
2.8 0.8 3.6
3.2 0.8 3.6
3.6 0.8 3.6
4 0.8 3.6
0 1.2 3.6
0.4 1.2 3.6
0.8 1.2 3.6
1.2 1.2 3.6
1.6 1.2 3.6
2 1.2 3.6
2.4 1.2 3.6
2.8 1.2 3.6
3.2 1.2 3.6
3.6 1.2 3.6
4 1.2 3.6
0 1.6 3.6
0.4 1.6 3.6
0.8 1.6 3.6
1.2 1.6 3.6
1.6 1.6 3.6
2 1.6 3.6
2.4 1.6 3.6
2.8 1.6 3.6
3.2 1.6 3.6
3.6 1.6 3.6
4 1.6 3.6
0 2 3.6
0.4 2 3.6
0.8 2 3.6
1.2 2 3.6
1.6 2 3.6
2 2 3.6
2.4 2 3.6
2.8 2 3.6
3.2 2 3.6
3.6 2 3.6
4 2 3.6
0 2.4 3.6
0.4 2.4 3.6
0.8 2.4 3.6
1.2 2.4 3.6
1.6 2.4 3.6
2 2.4 3.6
2.4 2.4 3.6
2.8 2.4 3.6
3.2 2.4 3.6
3.6 2.4 3.6
4 2.4 3.6
0 2.8 3.6
0.4 2.8 3.6
0.8 2.8 3.6
1.2 2.8 3.6
1.6 2.8 3.6
2 2.8 3.6
2.4 2.8 3.6
2.8 2.8 3.6
3.2 2.8 3.6
3.6 2.8 3.6
4 2.8 3.6
0 3.2 3.6
0.4 3.2 3.6
0.8 3.2 3.6
1.2 3.2 3.6
1.6 3.2 3.6
2 3.2 3.6
2.4 3.2 3.6
2.8 3.2 3.6
3.2 3.2 3.6
3.6 3.2 3.6
4 3.2 3.6
0 3.6 3.6
0.4 3.6 3.6
0.8 3.6 3.6
1.2 3.6 3.6
1.6 3.6 3.6
2 3.6 3.6
2.4 3.6 3.6
2.8 3.6 3.6
3.2 3.6 3.6
3.6 3.6 3.6
4 3.6 3.6
0 4 3.6
0.4 4 3.6
0.8 4 3.6
1.2 4 3.6
1.6 4 3.6
2 4 3.6
2.4 4 3.6
2.8 4 3.6
3.2 4 3.6
3.6 4 3.6
4 4 3.6
0 0 4
0.4 0 4
0.8 0 4
1.2 0 4
1.6 0 4
2 0 4
2.4 0 4
2.8 0 4
3.2 0 4
3.6 0 4
4 0 4
0 0.4 4
0.4 0.4 4
0.8 0.4 4
1.2 0.4 4
1.6 0.4 4
2 0.4 4
2.4 0.4 4
2.8 0.4 4
3.2 0.4 4
3.6 0.4 4
4 0.4 4
0 0.8 4
0.4 0.8 4
0.8 0.8 4
1.2 0.8 4
1.6 0.8 4
2 0.8 4
2.4 0.8 4
2.8 0.8 4
3.2 0.8 4
3.6 0.8 4
4 0.8 4
0 1.2 4
0.4 1.2 4
0.8 1.2 4
1.2 1.2 4
1.6 1.2 4
2 1.2 4
2.4 1.2 4
2.8 1.2 4
3.2 1.2 4
3.6 1.2 4
4 1.2 4
0 1.6 4
0.4 1.6 4
0.8 1.6 4
1.2 1.6 4
1.6 1.6 4
2 1.6 4
2.4 1.6 4
2.8 1.6 4
3.2 1.6 4
3.6 1.6 4
4 1.6 4
0 2 4
0.4 2 4
0.8 2 4
1.2 2 4
1.6 2 4
2 2 4
2.4 2 4
2.8 2 4
3.2 2 4
3.6 2 4
4 2 4
0 2.4 4
0.4 2.4 4
0.8 2.4 4
1.2 2.4 4
1.6 2.4 4
2 2.4 4
2.4 2.4 4
2.8 2.4 4
3.2 2.4 4
3.6 2.4 4
4 2.4 4
0 2.8 4
0.4 2.8 4
0.8 2.8 4
1.2 2.8 4
1.6 2.8 4
2 2.8 4
2.4 2.8 4
2.8 2.8 4
3.2 2.8 4
3.6 2.8 4
4 2.8 4
0 3.2 4
0.4 3.2 4
0.8 3.2 4
1.2 3.2 4
1.6 3.2 4
2 3.2 4
2.4 3.2 4
2.8 3.2 4
3.2 3.2 4
3.6 3.2 4
4 3.2 4
0 3.6 4
0.4 3.6 4
0.8 3.6 4
1.2 3.6 4
1.6 3.6 4
2 3.6 4
2.4 3.6 4
2.8 3.6 4
3.2 3.6 4
3.6 3.6 4
4 3.6 4
0 4 4
0.4 4 4
0.8 4 4
1.2 4 4
1.6 4 4
2 4 4
2.4 4 4
2.8 4 4
3.2 4 4
3.6 4 4
4 4 4

POINT_DATA 1331
SCALARS Temperature double
LOOKUP_TABLE lut
75
75
75
75
75
75
75
75
75
75
175
100
100
100
100
100
100
100
100
100
100
300
100
100
100
100
100
100
100
100
100
100
300
100
100
100
100
100
100
100
100
100
100
300
100
100
100
100
100
100
100
100
100
100
300
100
100
100
100
100
100
100
100
100
100
300
100
100
100
100
100
100
100
100
100
100
300
100
100
100
100
100
100
100
100
100
100
300
100
100
100
100
100
100
100
100
100
100
300
100
100
100
100
100
100
100
100
100
100
300
75
75
75
75
75
75
75
75
75
75
175
50
50
50
50
50
50
50
50
50
50
275
73.0396
74.4251
75.8106
77.4653
79.7613
83.3618
89.6946
102.382
132.166
216.027
500
81.0881
83.6993
86.3105
89.4076
93.6396
100.091
110.887
130.749
171.356
264.294
500
84.1077
87.6627
91.2178
95.4025
101.029
109.374
122.746
145.841
189.334
280.619
500
85.2383
89.3821
93.5259
98.3765
104.823
114.205
128.829
153.171
197.167
286.584
500
85.5294
89.8727
94.2159
99.2896
106.005
115.713
130.703
155.358
199.379
288.139
500
85.2383
89.3821
93.5259
98.3765
104.823
114.205
128.829
153.171
197.167
286.584
500
84.1077
87.6627
91.2178
95.4025
101.029
109.374
122.746
145.841
189.334
280.619
500
81.0881
83.6993
86.3105
89.4076
93.6396
100.091
110.887
130.748
171.356
264.294
500
73.0396
74.4251
75.8106
77.4653
79.7613
83.3617
89.6946
102.382
132.165
216.027
500
50
50
50
50
50
50
50
50
50
50
275
50
50
50
50
50
50
50
50
50
50
275
61.3395
64.0012
66.6629
69.8122
74.1013
80.6235
91.5367
111.685
153.228
249.701
500
67.6911
72.7095
77.7279
83.6277
91.5488
103.284
122.041
154.024
211.594
317.761
500
70.734
77.5695
84.4049
92.3839
102.935
118.17
141.548
179.049
241.018
343.504
500
72.0227
79.9929
87.9631
97.2179
109.323
126.492
152.148
191.831
254.534
353.578
500
72.3717
80.7265
89.0812
98.764
111.379
129.159
155.487
195.727
258.443
356.289
500
72.0227
79.9929
87.9631
97.2179
109.323
126.492
152.148
191.831
254.534
353.578
500
70.734
77.5695
84.4049
92.3839
102.935
118.17
141.548
179.049
241.018
343.504
500
67.6911
72.7095
77.7279
83.6277
91.5488
103.284
122.041
154.024
211.594
317.761
500
61.3394
64.0012
66.6629
69.8122
74.1012
80.6235
91.5367
111.685
153.228
249.701
500
50
50
50
50
50
50
50
50
50
50
275
50
50
50
50
50
50
50
50
50
50
275
55.1147
58.87
62.6253
67.016
72.8617
81.4569
95.1757
118.941
164.223
261.189
500
58.4841
65.5681
72.652
80.8857
91.7044
107.231
130.966
169.029
232.176
337.472
500
60.2582
69.9127
79.5672
90.7151
105.158
125.389
155.133
200.031
268.093
368.049
500
61.0315
72.2937
83.556
96.4968
113.091
135.947
168.699
216.358
285.168
380.554
500
61.2397
73.0473
84.8549
98.3981
115.701
139.39
173.038
221.41
290.194
383.999
500
61.0315
72.2937
83.556
96.4968
113.091
135.947
168.699
216.358
285.168
380.554
500
60.2582
69.9127
79.5672
90.7151
105.158
125.389
155.133
200.031
268.093
368.049
500
58.4841
65.5681
72.652
80.8857
91.7044
107.231
130.966
169.029
232.176
337.472
500
55.1146
58.87
62.6253
67.016
72.8617
81.4569
95.1757
118.941
164.223
261.189
500
50
50
50
50
50
50
50
50
50
50
275
50
50
50
50
50
50
50
50
50
50
275
51.2704
55.9107
60.5511
65.9111
72.8916
82.8494
98.1542
123.532
169.805
265.736
500
52.0221
60.7801
69.538
79.5992
92.5417
110.586
137.185
178.033
242.647
345.656
500
52.2766
64.2195
76.1625
89.7992
107.11
130.695
164.163
212.524
282.118
378.672
500
52.2837
66.2219
80.1601
96.0026
115.921
142.621
179.572
231.01
301.274
392.529
500
52.2599
66.8754
81.4909
98.0757
118.855
146.549
184.544
236.784
306.978
396.405
500
52.2838
66.2219
80.1601
96.0026
115.921
142.621
179.572
231.01
301.273
392.529
500
52.2766
64.2195
76.1625
89.7992
107.11
130.695
164.163
212.524
282.118
378.672
500
52.0222
60.7801
69.538
79.5992
92.5417
110.586
137.185
178.033
242.647
345.656
500
51.2704
55.9107
60.5511
65.9111
72.8915
82.8494
98.1542
123.532
169.805
265.736
500
50
50
50
50
50
50
50
50
50
50
275
50
50
50
50
50
50
50
50
50
50
275
48.6644
53.9928
59.3212
65.4089
73.1853
84.0078
100.183
126.257
172.693
267.767
500
47.3609
57.4221
67.4832
78.9194
93.3586
113.014
141.209
183.285
248.091
349.411
500
46.2359
59.9634
73.6909
89.2054
108.549
134.298
169.872
219.787
289.5
383.676
500
45.4717
61.4991
77.5265
95.563
117.845
147.044
186.392
239.546
309.838
398.273
500
45.2014
62.0103
78.8192
97.7055
120.96
151.264
191.75
245.754
315.937
402.391
500
45.4718
61.4991
77.5265
95.563
117.845
147.044
186.392
239.546
309.838
398.273
500
46.236
59.9634
73.6909
89.2054
108.549
134.298
169.872
219.787
289.5
383.676
500
47.3609
57.4221
67.4832
78.9194
93.3586
113.014
141.209
183.284
248.091
349.411
500
48.6644
53.9928
59.3212
65.4088
73.1853
84.0078
100.183
126.257
172.693
267.767
500
50
50
50
50
50
50
50
50
50
50
275
50
50
50
50
50
50
50
50
50
50
275
46.7855
52.6384
58.4913
65.1161
73.4449
84.8147
101.473
127.847
174.235
268.761
500
43.8962
54.952
66.0077
78.4609
93.9426
114.625
143.713
186.33
251.013
351.277
500
41.6216
56.7129
71.8042
88.7109
109.476
136.615
173.383
223.994
293.491
386.202
500
40.175
57.8009
75.4268
95.0928
119.034
149.846
190.565
244.497
314.498
401.205
500
39.6797
58.1675
76.6553
97.2522
122.246
154.238
196.154
250.96
320.824
405.459
500
40.175
57.8009
75.4268
95.0928
119.034
149.846
190.565
244.497
314.498
401.205
500
41.6216
56.7129
71.8042
88.7109
109.476
136.615
173.383
223.994
293.491
386.202
500
43.8962
54.952
66.0077
78.4609
93.9426
114.625
143.713
186.33
251.012
351.277
500
46.7855
52.6384
58.4913
65.1161
73.4449
84.8147
101.473
127.847
174.235
268.761
500
50
50
50
50
50
50
50
50
50
50
275
50
50
50
50
50
50
50
50
50
50
275
45.3532
51.6089
57.8646
64.8906
73.6105
85.3383
102.277
128.789
175.098
269.289
500
41.2142
53.0345
64.8547
78.0689
94.2908
115.648
145.262
188.129
252.65
352.275
500
37.9945
54.1354
70.2761
88.2264
110.004
138.062
175.539
226.477
295.738
387.564
500
35.967
54.8241
73.6812
94.5703
119.696
151.579
193.119
247.421
317.132
402.796
500
35.2765
55.0579
74.8392
96.7207
122.958
156.073
198.846
254.036
323.59
407.128
500
35.967
54.8241
73.6812
94.5703
119.696
151.579
193.119
247.421
317.132
402.796
500
37.9945
54.1354
70.2762
88.2264
110.004
138.062
175.539
226.477
295.738
387.564
500
41.2143
53.0345
64.8547
78.0689
94.2908
115.648
145.262
188.129
252.65
352.275
500
45.3532
51.6089
57.8646
64.8906
73.6105
85.3383
102.277
128.789
175.098
269.289
500
50
50
50
50
50
50
50
50
50
50
275
50
50
50
50
50
50
50
50
50
50
275
44.1834
50.7627
57.3419
64.6835
73.6985
85.6801
102.8
129.385
175.624
269.601
500
39.007
51.4418
63.8765
77.6898
94.4713
116.308
146.264
189.264
253.651
352.866
500
34.9847
51.9699
68.955
87.7279
110.273
138.987
176.929
228.044
297.113
388.376
500
32.4541
52.3024
72.1507
94.0051
120.03
152.681
194.761
249.266
318.747
403.748
500
31.5927
52.4157
73.2386
96.1344
123.316
157.237
200.577
255.976
325.288
408.127
500
32.4541
52.3024
72.1507
94.0051
120.03
152.681
194.761
249.266
318.747
403.748
500
34.9847
51.9699
68.955
87.7279
110.273
138.987
176.928
228.044
297.113
388.376
500
39.007
51.4418
63.8765
77.6898
94.4713
116.308
146.264
189.264
253.651
352.866
500
44.1834
50.7627
57.3419
64.6835
73.6985
85.6801
102.8
129.385
175.624
269.601
500
50
50
50
50
50
50
50
50
50
50
275
50
50
50
50
50
50
50
50
50
50
275
43.136
50
56.864
64.4801
73.7458
85.9353
103.197
129.83
176.01
269.826
500
37.0241
50
62.9759
77.3106
94.5679
116.799
147.021
190.113
254.386
353.294
500
32.2709
50
67.729
87.2183
110.416
139.671
177.976
229.214
298.125
388.965
500
29.278
50
70.7219
93.4174
120.208
153.492
195.998
250.644
319.936
404.439
500
28.2588
50
71.7412
95.5209
123.508
158.093
201.879
257.426
326.538
408.854
500
29.2781
50
70.7219
93.4174
120.208
153.492
195.998
250.644
319.936
404.439
500
32.2709
50
67.729
87.2183
110.416
139.671
177.976
229.214
298.125
388.964
500
37.0241
50
62.9759
77.3106
94.5679
116.799
147.021
190.113
254.386
353.294
500
43.136
50
56.864
64.4801
73.7458
85.9353
103.197
129.83
176.01
269.826
500
50
50
50
50
50
50
50
50
50
50
275
50
50
50
50
50
50
50
50
50
50
275
42.0885
49.2373
56.3861
64.2767
73.7931
86.1905
103.593
130.275
176.397
270.051
500
35.0411
48.5582
62.0753
76.9313
94.6645
117.289
147.778
190.961
255.121
353.722
500
29.5571
48.0301
66.503
86.7088
110.56
140.355
179.023
230.385
299.137
389.553
500
26.102
47.6975
69.2931
92.8297
120.387
154.304
197.234
252.022
321.126
405.13
500
24.9249
47.5843
70.2437
94.9074
123.699
158.949
203.18
258.876
327.789
409.58
500
26.102
47.6975
69.2931
92.8297
120.387
154.304
197.234
252.022
321.126
405.13
500
29.5571
48.0301
66.503
86.7088
110.56
140.355
179.023
230.385
299.137
389.553
500
35.0412
48.5582
62.0753
76.9313
94.6645
117.289
147.778
190.961
255.121
353.722
500
42.0885
49.2373
56.3861
64.2767
73.7931
86.1905
103.593
130.275
176.397
270.051
500
50
50
50
50
50
50
50
50
50
50
275
