# vtk DataFile Version 3.0 
vtk output 
ASCII 
DATASET UNSTRUCTURED_GRID 
POINTS 550 double
0.707107 0.707107 0
0.635941 0.771738 0
0.558898 0.829237 0
0.476689 0.879072 0
0.390075 0.920783 0
0.299856 0.953984 0
0.206866 0.978369 0
0.111964 0.993712 0
0.0160278 0.999872 0
-0.0800569 0.99679 0
-0.175402 0.984497 0
-0.269126 0.963105 0
-0.360362 0.932812 0
-0.448269 0.893899 0
-0.532032 0.846724 0
-0.610879 0.791724 0
-0.68408 0.729407 0
-0.750958 0.660349 0
-0.810897 0.585189 0
-0.863342 0.50462 0
-0.907807 0.419387 0
-0.943883 0.330279 0
-0.971236 0.238118 0
-0.989613 0.143757 0
-0.998844 0.0480671 0
-0.998844 -0.0480671 0
-0.989613 -0.143757 0
-0.971236 -0.238118 0
-0.943883 -0.330279 0
-0.907807 -0.419387 0
-0.863342 -0.50462 0
-0.810897 -0.585189 0
-0.750958 -0.660349 0
-0.68408 -0.729407 0
-0.610879 -0.791724 0
-0.532032 -0.846724 0
-0.448269 -0.893899 0
-0.360362 -0.932812 0
-0.269126 -0.963105 0
-0.175402 -0.984497 0
-0.0800569 -0.99679 0
0.0160278 -0.999872 0
0.111964 -0.993712 0
0.206866 -0.978369 0
0.299856 -0.953984 0
0.390075 -0.920783 0
0.476689 -0.879072 0
0.558898 -0.829237 0
0.635941 -0.771738 0
0.707107 -0.707107 0
0.671751 0.671751 0
0.599069 0.723799 0
0.523772 0.772081 0
0.445252 0.814844 0
0.363615 0.851074 0
0.279277 0.880099 0
0.19281 0.901442 0
0.104881 0.914774 0
0.016211 0.91988 0
-0.0724451 0.916648 0
-0.160313 0.905064 0
-0.246613 0.885202 0
-0.33057 0.857221 0
-0.411427 0.821365 0
-0.488448 0.777951 0
-0.56093 0.727372 0
-0.62821 0.670088 0
-0.689672 0.606625 0
-0.744749 0.537565 0
-0.792937 0.463544 0
-0.833792 0.385244 0
-0.866936 0.303387 0
-0.892066 0.218729 0
-0.908949 0.13205 0
-0.917429 0.0441527 0
-0.917429 -0.0441527 0
-0.908949 -0.13205 0
-0.892066 -0.218729 0
-0.866936 -0.303387 0
-0.833792 -0.385244 0
-0.792937 -0.463544 0
-0.744749 -0.537565 0
-0.689672 -0.606625 0
-0.62821 -0.670088 0
-0.56093 -0.727372 0
-0.488448 -0.777951 0
-0.411427 -0.821365 0
-0.33057 -0.857221 0
-0.246613 -0.885202 0
-0.160313 -0.905064 0
-0.0724451 -0.916648 0
0.016211 -0.91988 0
0.104881 -0.914774 0
0.19281 -0.901442 0
0.279277 -0.880099 0
0.363615 -0.851074 0
0.445252 -0.814844 0
0.523772 -0.772081 0
0.599069 -0.723799 0
0.671751 -0.671751 0
0.636396 0.636396 0
0.564809 0.679627 0
0.491871 0.720445 0
0.416932 0.757149 0
0.339856 0.788572 0
0.260824 0.813893 0
0.180217 0.832527 0
0.0985397 0.844062 0
0.0163798 0.848225 0
-0.0656217 0.844859 0
-0.146792 0.833909 0
-0.226442 0.815416 0
-0.303879 0.789507 0
-0.378421 0.756388 0
-0.449402 0.716343 0
-0.516183 0.669724 0
-0.57816 0.616949 0
-0.634768 0.558498 0
-0.685492 0.494903 0
-0.729866 0.426747 0
-0.767486 0.354657 0
-0.798004 0.279296 0
-0.821142 0.201359 0
-0.836687 0.121563 0
-0.844495 0.0406461 0
-0.844495 -0.0406461 0
-0.836687 -0.121563 0
-0.821142 -0.201359 0
-0.798004 -0.279296 0
-0.767486 -0.354657 0
-0.729866 -0.426747 0
-0.685492 -0.494903 0
-0.634768 -0.558498 0
-0.57816 -0.616949 0
-0.516183 -0.669724 0
-0.449402 -0.716343 0
-0.378421 -0.756388 0
-0.303879 -0.789507 0
-0.226442 -0.815416 0
-0.146792 -0.833909 0
-0.0656217 -0.844859 0
0.0163798 -0.848225 0
0.0985397 -0.844062 0
0.180217 -0.832527 0
0.260824 -0.813893 0
0.339856 -0.788572 0
0.416932 -0.757149 0
0.491871 -0.720445 0
0.564809 -0.679627 0
0.636396 -0.636396 0
0.601041 0.601041 0
0.531902 0.637867 0
0.461971 0.672922 0
0.39075 0.704736 0
0.318052 0.732172 0
0.243948 0.754375 0
0.168694 0.770711 0
0.0926805 0.780723 0
0.0163903 0.7841 0
-0.0596296 0.780652 0
-0.134791 0.770297 0
-0.208483 0.753047 0
-0.280084 0.729002 0
-0.348976 0.698338 0
-0.414557 0.661309 0
-0.476241 0.618231 0
-0.533478 0.569487 0
-0.585749 0.515514 0
-0.632582 0.456801 0
-0.673551 0.393885 0
-0.70828 0.327341 0
-0.736453 0.257782 0
-0.757812 0.185847 0
-0.772162 0.112198 0
-0.779369 0.0375146 0
-0.779369 -0.0375146 0
-0.772162 -0.112198 0
-0.757812 -0.185847 0
-0.736453 -0.257782 0
-0.70828 -0.327341 0
-0.673551 -0.393885 0
-0.632582 -0.456801 0
-0.585749 -0.515514 0
-0.533478 -0.569487 0
-0.476241 -0.618231 0
-0.414557 -0.661309 0
-0.348976 -0.698338 0
-0.280084 -0.729002 0
-0.208483 -0.753047 0
-0.134791 -0.770297 0
-0.0596296 -0.780652 0
0.0163903 -0.7841 0
0.0926805 -0.780723 0
0.168694 -0.770711 0
0.243948 -0.754375 0
0.318052 -0.732172 0
0.39075 -0.704736 0
0.461971 -0.672922 0
0.531902 -0.637867 0
0.601041 -0.601041 0
0.565685 0.565685 0
0.499786 0.597877 0
0.433363 0.62864 0
0.366043 0.6567 0
0.297654 0.681005 0
0.228221 0.700723 0
0.157931 0.715218 0
0.087098 0.724019 0
0.0161305 0.7268 0
-0.054496 0.723353 0
-0.12426 0.71358 0
-0.192614 0.697474 0
-0.258996 0.675114 0
-0.322845 0.646655 0
-0.383606 0.612322 0
-0.440747 0.572405 0
-0.49376 0.527254 0
-0.542169 0.477269 0
-0.585538 0.422903 0
-0.623474 0.36465 0
-0.655631 0.303042 0
-0.681716 0.238644 0
-0.701492 0.172048 0
-0.714778 0.103867 0
-0.721451 0.0347291 0
-0.721451 -0.0347291 0
-0.714778 -0.103867 0
-0.701492 -0.172048 0
-0.681716 -0.238644 0
-0.655631 -0.303042 0
-0.623474 -0.36465 0
-0.585538 -0.422903 0
-0.542169 -0.477269 0
-0.49376 -0.527254 0
-0.440747 -0.572405 0
-0.383606 -0.612322 0
-0.322845 -0.646655 0
-0.258996 -0.675114 0
-0.192614 -0.697474 0
-0.12426 -0.71358 0
-0.054496 -0.723353 0
0.0161305 -0.7268 0
0.087098 -0.724019 0
0.157931 -0.715218 0
0.228221 -0.700723 0
0.297654 -0.681005 0
0.366043 -0.6567 0
0.433363 -0.62864 0
0.499786 -0.597877 0
0.565685 -0.565685 0
0.53033 0.53033 0
0.468193 0.559318 0
0.405652 0.58706 0
0.342404 0.612418 0
0.2783 0.634425 0
0.213351 0.652296 0
0.147711 0.665418 0
0.0816501 0.673336 0
0.0155296 0.675726 0
-0.0502244 0.672381 0
-0.11514 0.663195 0
-0.178718 0.648155 0
-0.240443 0.627325 0
-0.299799 0.600845 0
-0.356276 0.56892 0
-0.409382 0.531815 0
-0.458647 0.489853 0
-0.50363 0.443406 0
-0.543927 0.392892 0
-0.579175 0.338769 0
-0.609053 0.281532 0
-0.633289 0.221704 0
-0.651663 0.159835 0
-0.664006 0.0964935 0
-0.670206 0.0322636 0
-0.670206 -0.0322636 0
-0.664006 -0.0964935 0
-0.651663 -0.159835 0
-0.633289 -0.221704 0
-0.609053 -0.281532 0
-0.579175 -0.338769 0
-0.543927 -0.392892 0
-0.50363 -0.443406 0
-0.458647 -0.489853 0
-0.409382 -0.531815 0
-0.356276 -0.56892 0
-0.299799 -0.600845 0
-0.240443 -0.627325 0
-0.178718 -0.648155 0
-0.11514 -0.663195 0
-0.0502244 -0.672381 0
0.0155296 -0.675726 0
0.0816501 -0.673336 0
0.147711 -0.665418 0
0.213351 -0.652296 0
0.2783 -0.634425 0
0.342404 -0.612418 0
0.405652 -0.58706 0
0.468193 -0.559318 0
0.53033 -0.53033 0
0.494975 0.494975 0
0.437004 0.522005 0
0.378648 0.547863 0
0.319622 0.571489 0
0.259792 0.591982 0
0.199172 0.608616 0
0.137911 0.620824 0
0.0762621 0.628181 0
0.0145622 0.630387 0
-0.046791 0.627248 0
-0.107358 0.618666 0
-0.166674 0.604625 0
-0.224259 0.585187 0
-0.279632 0.56048 0
-0.332318 0.530696 0
-0.381858 0.496082 0
-0.427814 0.456937 0
-0.469776 0.41361 0
-0.507367 0.36649 0
-0.540246 0.316003 0
-0.568117 0.262612 0
-0.590725 0.206804 0
-0.607864 0.149093 0
-0.619377 0.0900087 0
-0.625161 0.0300953 0
-0.625161 -0.0300953 0
-0.619377 -0.0900087 0
-0.607864 -0.149093 0
-0.590725 -0.206804 0
-0.568117 -0.262612 0
-0.540246 -0.316003 0
-0.507367 -0.36649 0
-0.469776 -0.41361 0
-0.427814 -0.456937 0
-0.381858 -0.496082 0
-0.332318 -0.530696 0
-0.279632 -0.56048 0
-0.224259 -0.585187 0
-0.166674 -0.604625 0
-0.107358 -0.618666 0
-0.046791 -0.627248 0
0.0145622 -0.630387 0
0.0762621 -0.628181 0
0.137911 -0.620824 0
0.199172 -0.608616 0
0.259792 -0.591982 0
0.319622 -0.571489 0
0.378648 -0.547863 0
0.437004 -0.522005 0
0.494975 -0.494975 0
0.459619 0.459619 0
0.406202 0.485863 0
0.352313 0.5109 0
0.297644 0.533691 0
0.242072 0.553398 0
0.185636 0.569362 0
0.128499 0.58108 0
0.0709248 0.588178 0
0.0132483 0.590393 0
-0.0441435 0.587559 0
-0.100828 0.579595 0
-0.156361 0.566493 0
-0.210287 0.548318 0
-0.262151 0.525194 0
-0.311506 0.497302 0
-0.357918 0.464878 0
-0.400976 0.428205 0
-0.440293 0.387608 0
-0.475517 0.343453 0
-0.506326 0.296143 0
-0.532443 0.246109 0
-0.553629 0.193809 0
-0.56969 0.139725 0
-0.580479 0.084353 0
-0.585899 0.0282043 0
-0.585899 -0.0282043 0
-0.580479 -0.084353 0
-0.56969 -0.139725 0
-0.553629 -0.193809 0
-0.532443 -0.246109 0
-0.506326 -0.296143 0
-0.475517 -0.343453 0
-0.440293 -0.387608 0
-0.400976 -0.428205 0
-0.357918 -0.464878 0
-0.311506 -0.497302 0
-0.262151 -0.525194 0
-0.210287 -0.548318 0
-0.156361 -0.566493 0
-0.100828 -0.579595 0
-0.0441435 -0.587559 0
0.0132483 -0.590393 0
0.0709248 -0.588178 0
0.128499 -0.58108 0
0.185636 -0.569362 0
0.242072 -0.553398 0
0.297644 -0.533691 0
0.352313 -0.5109 0
0.406202 -0.485863 0
0.459619 -0.459619 0
0.424264 0.424264 0
0.37587 0.450929 0
0.326758 0.476183 0
0.276569 0.498978 0
0.225218 0.518556 0
0.172799 0.534354 0
0.119524 0.545956 0
0.0656899 0.553057 0
0.0116496 0.555448 0
-0.0422033 0.553001 0
-0.0954494 0.54566 0
-0.147654 0.533435 0
-0.198377 0.516398 0
-0.24718 0.494674 0
-0.293637 0.468441 0
-0.337333 0.437925 0
-0.377878 0.403395 0
-0.414905 0.365163 0
-0.44808 0.323573 0
-0.4771 0.279006 0
-0.501701 0.23187 0
-0.521657 0.182598 0
-0.536787 0.131643 0
-0.546951 0.0794746 0
-0.552057 0.0265732 0
-0.552057 -0.0265732 0
-0.546951 -0.0794746 0
-0.536787 -0.131643 0
-0.521657 -0.182598 0
-0.501701 -0.23187 0
-0.4771 -0.279006 0
-0.44808 -0.323573 0
-0.414905 -0.365163 0
-0.377878 -0.403395 0
-0.337333 -0.437925 0
-0.293637 -0.468441 0
-0.24718 -0.494674 0
-0.198377 -0.516398 0
-0.147654 -0.533435 0
-0.0954494 -0.54566 0
-0.0422033 -0.553001 0
0.0116496 -0.555448 0
0.0656899 -0.553057 0
0.119524 -0.545956 0
0.172799 -0.534354 0
0.225218 -0.518556 0
0.276569 -0.498978 0
0.326758 -0.476183 0
0.37587 -0.450929 0
0.424264 -0.424264 0
0.388909 0.388909 0
0.346257 0.417407 0
0.30228 0.443923 0
0.256657 0.467482 0
0.209432 0.487493 0
0.160817 0.503543 0
0.111109 0.515333 0
0.0606612 0.522647 0
0.00986366 0.525342 0
-0.0408701 0.523337 0
-0.0911123 0.516609 0
-0.140429 0.50519 0
-0.188386 0.489164 0
-0.234557 0.468662 0
-0.278527 0.443863 0
-0.319899 0.414985 0
-0.358296 0.38229 0
-0.39337 0.346074 0
-0.424798 0.30667 0
-0.452293 0.264439 0
-0.475603 0.219768 0
-0.494513 0.17307 0
-0.50885 0.124775 0
-0.518482 0.0753289 0
-0.52332 0.0251871 0
-0.52332 -0.0251871 0
-0.518482 -0.0753289 0
-0.50885 -0.124775 0
-0.494513 -0.17307 0
-0.475603 -0.219768 0
-0.452293 -0.264439 0
-0.424798 -0.30667 0
-0.39337 -0.346074 0
-0.358296 -0.38229 0
-0.319899 -0.414985 0
-0.278527 -0.443863 0
-0.234557 -0.468662 0
-0.188386 -0.489164 0
-0.140429 -0.50519 0
-0.0911123 -0.516609 0
-0.0408701 -0.523337 0
0.00986366 -0.525342 0
0.0606612 -0.522647 0
0.111109 -0.515333 0
0.160817 -0.503543 0
0.209432 -0.487493 0
0.256657 -0.467482 0
0.30228 -0.443923 0
0.346257 -0.417407 0
0.388909 -0.388909 0
0.353553 0.353553 0
0.31797 0.385869 0
0.279449 0.414618 0
0.238345 0.439536 0
0.195038 0.460391 0
0.149928 0.476992 0
0.103433 0.489185 0
0.0559822 0.496856 0
0.00801392 0.499936 0
-0.0400285 0.498395 0
-0.0877009 0.492248 0
-0.134563 0.481553 0
-0.180181 0.466406 0
-0.224134 0.446949 0
-0.266016 0.423362 0
-0.305439 0.395862 0
-0.34204 0.364704 0
-0.375479 0.330175 0
-0.405449 0.292594 0
-0.431671 0.25231 0
-0.453904 0.209694 0
-0.471942 0.16514 0
-0.485618 0.119059 0
-0.494807 0.0718785 0
-0.499422 0.0240335 0
-0.499422 -0.0240335 0
-0.494807 -0.0718785 0
-0.485618 -0.119059 0
-0.471942 -0.16514 0
-0.453904 -0.209694 0
-0.431671 -0.25231 0
-0.405449 -0.292594 0
-0.375479 -0.330175 0
-0.34204 -0.364704 0
-0.305439 -0.395862 0
-0.266016 -0.423362 0
-0.224134 -0.446949 0
-0.180181 -0.466406 0
-0.134563 -0.481553 0
-0.0877009 -0.492248 0
-0.0400285 -0.498395 0
0.00801392 -0.499936 0
0.0559822 -0.496856 0
0.103433 -0.489185 0
0.149928 -0.476992 0
0.195038 -0.460391 0
0.238345 -0.439536 0
0.279449 -0.414618 0
0.31797 -0.385869 0
0.353553 -0.353553 0

POINT_DATA 550
SCALARS Temperature double 1
LOOKUP_TABLE default
0
0
0
0
0
0
0
0
0
0
0
0
0
0
0
0
0
0
0
0
0
0
0
0
0
0
0
0
0
0
0
0
0
0
0
0
0
0
0
0
0
0
0
0
0
0
0
0
0
250
0
nan
nan
nan
nan
nan
nan
nan
nan
nan
nan
nan
nan
nan
nan
nan
nan
nan
nan
nan
nan
nan
nan
nan
nan
nan
nan
nan
nan
nan
nan
nan
nan
nan
nan
nan
nan
nan
nan
nan
nan
nan
nan
nan
nan
nan
nan
nan
nan
500
0
nan
nan
nan
nan
nan
nan
nan
nan
nan
nan
nan
nan
nan
nan
nan
nan
nan
nan
nan
nan
nan
nan
nan
nan
nan
nan
nan
nan
nan
nan
nan
nan
nan
nan
nan
nan
nan
nan
nan
nan
nan
nan
nan
nan
nan
nan
nan
nan
500
0
nan
nan
nan
nan
nan
nan
nan
nan
nan
nan
nan
nan
nan
nan
nan
nan
nan
nan
nan
nan
nan
nan
nan
nan
nan
nan
nan
nan
nan
nan
nan
nan
nan
nan
nan
nan
nan
nan
nan
nan
nan
nan
nan
nan
nan
nan
nan
nan
500
0
nan
nan
nan
nan
nan
nan
nan
nan
nan
nan
nan
nan
nan
nan
nan
nan
nan
nan
nan
nan
nan
nan
nan
nan
nan
nan
nan
nan
nan
nan
nan
nan
nan
nan
nan
nan
nan
nan
nan
nan
nan
nan
nan
nan
nan
nan
nan
nan
500
0
nan
nan
nan
nan
nan
nan
nan
nan
nan
nan
nan
nan
nan
nan
nan
nan
nan
nan
nan
nan
nan
nan
nan
nan
nan
nan
nan
nan
nan
nan
nan
nan
nan
nan
nan
nan
nan
nan
nan
nan
nan
nan
nan
nan
nan
nan
nan
nan
500
0
nan
nan
nan
nan
nan
nan
nan
nan
nan
nan
nan
nan
nan
nan
nan
nan
nan
nan
nan
nan
nan
nan
nan
nan
nan
nan
nan
nan
nan
nan
nan
nan
nan
nan
nan
nan
nan
nan
nan
nan
nan
nan
nan
nan
nan
nan
nan
nan
500
0
nan
nan
nan
nan
nan
nan
nan
nan
nan
nan
nan
nan
nan
nan
nan
nan
nan
nan
nan
nan
nan
nan
nan
nan
nan
nan
nan
nan
nan
nan
nan
nan
nan
nan
nan
nan
nan
nan
nan
nan
nan
nan
nan
nan
nan
nan
nan
nan
500
0
nan
nan
nan
nan
nan
nan
nan
nan
nan
nan
nan
nan
nan
nan
nan
nan
nan
nan
nan
nan
nan
nan
nan
nan
nan
nan
nan
nan
nan
nan
nan
nan
nan
nan
nan
nan
nan
nan
nan
nan
nan
nan
nan
nan
nan
nan
nan
nan
500
0
nan
nan
nan
nan
nan
nan
nan
nan
nan
nan
nan
nan
nan
nan
nan
nan
nan
nan
nan
nan
nan
nan
nan
nan
nan
nan
nan
nan
nan
nan
nan
nan
nan
nan
nan
nan
nan
nan
nan
nan
nan
nan
nan
nan
nan
nan
nan
nan
500
0
0
0
0
0
0
0
0
0
0
0
0
0
0
0
0
0
0
0
0
0
0
0
0
0
0
0
0
0
0
0
0
0
0
0
0
0
0
0
0
0
0
0
0
0
0
0
0
0
250
