# vtk DataFile Version 3.0
ParaView Output
ASCII
DATASET STRUCTURED_GRID
DIMENSIONS 5 4 4
POINTS 80 double
0 0 0
0.25 0 0
0.5 0 0
0.75 0 0
1 0 0
0 0.333333 0
0.25 0.333333 0
0.5 0.333333 0
0.75 0.333333 0
1 0.333333 0
0 0.666667 0
0.25 0.666667 0
0.5 0.666667 0
0.75 0.666667 0
1 0.666667 0
0 1 0
0.25 1 0
0.5 1 0
0.75 1 0
1 1 0
0 0 0.333333
0.25 0 0.333333
0.5 0 0.333333
0.75 0 0.333333
1 0 0.333333
0 0.333333 0.333333
0.25 0.333333 0.333333
0.5 0.333333 0.333333
0.75 0.333333 0.333333
1 0.333333 0.333333
0 0.666667 0.333333
0.25 0.666667 0.333333
0.5 0.666667 0.333333
0.75 0.666667 0.333333
1 0.666667 0.333333
0 1 0.333333
0.25 1 0.333333
0.5 1 0.333333
0.75 1 0.333333
1 1 0.333333
0 0 0.666667
0.25 0 0.666667
0.5 0 0.666667
0.75 0 0.666667
1 0 0.666667
0 0.333333 0.666667
0.25 0.333333 0.666667
0.5 0.333333 0.666667
0.75 0.333333 0.666667
1 0.333333 0.666667
0 0.666667 0.666667
0.25 0.666667 0.666667
0.5 0.666667 0.666667
0.75 0.666667 0.666667
1 0.666667 0.666667
0 1 0.666667
0.25 1 0.666667
0.5 1 0.666667
0.75 1 0.666667
1 1 0.666667
0 0 1
0.25 0 1
0.5 0 1
0.75 0 1
1 0 1
0 0.333333 1
0.25 0.333333 1
0.5 0.333333 1
0.75 0.333333 1
1 0.333333 1
0 0.666667 1
0.25 0.666667 1
0.5 0.666667 1
0.75 0.666667 1
1 0.666667 1
0 1 1
0.25 1 1
0.5 1 1
0.75 1 1
1 1 1

POINT_DATA 80
SCALARS Temperature double
LOOKUP_TABLE default
3
5
5
5
2.5
6
10
10
10
5
6
10
10
10
5
3
5
5
5
2.5
1
0
0
0
0
2
1.18242
1.15161
1.45338
0
2
1.3864
1.41045
2.01586
0
1
0
0
0
0
1
0
0
0
0
2
0.827633
0.666887
0.967795
0
2
1.03356
0.913686
1.63688
0
1
0
0
0
0
1.75
2.5
2.5
2.5
1.25
3.5
5
5
5
2.5
3.5
5
5
5
2.5
1.75
2.5
2.5
2.5
1.25
