# vtk DataFile Version 3.0
ParaView Output
ASCII
DATASET STRUCTURED_GRID
DIMENSIONS 5 5 1
POINTS 25 double
0 0 0
1 0 0
2 0 0
3 0 0
4 0 0
0 1 0
1 1 0
2 1 0
3 1 0
4 1 0
0 2 0
1 2 0
2 2 0
3 2 0
4 2 0
0 3 0
1 3 0
2 3 0
3 3 0
4 3 0
0 4 0
1 4 0
2 4 0
3 4 0
4 4 0

POINT_DATA 25
SCALARS Temperature double
LOOKUP_TABLE default
60
100
100
100
50
20
87.1429
105.536
80
0
20
123.036
155
114.464
0
20
230
276.964
222.857
0
260
500
500
500
250
