# vtk DataFile Version 3.0
ParaView Output
ASCII
DATASET STRUCTURED_GRID
DIMENSIONS 5 5 5
POINTS 125 double
0 0 0
1 0 0
2 0 0
3 0 0
4 0 0
0 1 0
1 1 0
2 1 0
3 1 0
4 1 0
0 2 0
1 2 0
2 2 0
3 2 0
4 2 0
0 3 0
1 3 0
2 3 0
3 3 0
4 3 0
0 4 0
1 4 0
2 4 0
3 4 0
4 4 0
0 0 1
1 0 1
2 0 1
3 0 1
4 0 1
0 1 1
1 1 1
2 1 1
3 1 1
4 1 1
0 2 1
1 2 1
2 2 1
3 2 1
4 2 1
0 3 1
1 3 1
2 3 1
3 3 1
4 3 1
0 4 1
1 4 1
2 4 1
3 4 1
4 4 1
0 0 2
1 0 2
2 0 2
3 0 2
4 0 2
0 1 2
1 1 2
2 1 2
3 1 2
4 1 2
0 2 2
1 2 2
2 2 2
3 2 2
4 2 2
0 3 2
1 3 2
2 3 2
3 3 2
4 3 2
0 4 2
1 4 2
2 4 2
3 4 2
4 4 2
0 0 3
1 0 3
2 0 3
3 0 3
4 0 3
0 1 3
1 1 3
2 1 3
3 1 3
4 1 3
0 2 3
1 2 3
2 2 3
3 2 3
4 2 3
0 3 3
1 3 3
2 3 3
3 3 3
4 3 3
0 4 3
1 4 3
2 4 3
3 4 3
4 4 3
0 0 4
1 0 4
2 0 4
3 0 4
4 0 4
0 1 4
1 1 4
2 1 4
3 1 4
4 1 4
0 2 4
1 2 4
2 2 4
3 2 4
4 2 4
0 3 4
1 3 4
2 3 4
3 3 4
4 3 4
0 4 4
1 4 4
2 4 4
3 4 4
4 4 4

POINT_DATA 125
SCALARS Temperature double
LOOKUP_TABLE default
1000
1000
1000
1000
1000
1000
1000
1000
1000
1000
1000
1000
1000
1000
1000
1000
1000
1000
1000
1000
1000
1000
1000
1000
1000
-1.52452e+11
-6.70392e+10
-2.23383e+10
2.42107e+10
-2.25469e+11
-1.89852e+11
-5.97113e+10
-1.13111e+10
1.0442e+10
2.395e+10
-1.87305e+11
-6.16184e+10
-1.39045e+10
-1.16077e+10
-2.28638e+10
-1.66621e+11
-8.32371e+10
-6.16436e+10
-6.21293e+10
-6.85374e+10
-2.46815e+11
-1.6814e+11
-1.91238e+11
-1.94248e+11
-1.5566e+11
-8.69053e+10
-1.24446e+10
2.87991e+10
6.01698e+10
1.07669e+11
-1.06495e+11
-3.92288e+10
-3.19166e+09
2.32082e+10
5.98579e+10
-9.3733e+10
-4.43848e+10
-2.56825e+10
-4.11704e+09
2.81804e+10
-5.81325e+10
-4.7227e+10
-4.70473e+10
-4.0534e+10
-1.42317e+10
3.28176e+09
-6.01889e+10
-9.86692e+10
-1.12215e+11
-9.11962e+10
-3.77783e+10
-1.75688e+10
-1.13764e+08
1.40007e+10
2.94475e+10
-2.33719e+10
-8.98463e+09
4.17631e+08
1.092e+10
1.39155e+10
-7.03089e+09
-4.6347e+09
-8.31199e+09
4.08634e+07
-2.90714e+08
1.22487e+10
3.73591e+09
-5.89764e+09
-1.11091e+10
-1.87017e+10
3.39304e+10
1.01738e+10
-1.201e+10
-2.88942e+10
-4.14508e+10
-1.37371e+10
-4.33227e+10
-4.86674e+10
-4.87229e+10
-1.16037e+11
2.97431e+10
-1.05331e+10
-2.16321e+10
-2.6835e+10
-4.82812e+10
4.81545e+10
1.62267e+09
-1.42414e+10
-2.14982e+10
-4.77638e+10
5.95728e+10
1.89531e+10
5.7465e+08
-1.1301e+10
-4.33259e+10
6.77822e+10
5.84236e+10
4.50257e+10
2.66552e+10
-1.5282e+10
