# vtk DataFile Version 3.0 
vtk output 
ASCII 
DATASET UNSTRUCTURED_GRID 
POINTS 25 double
0 0 0
1 0 0
2 0 0
3 0 0
4 0 0
0 1 0
1 1 0
2 1 0
3 1 0
4 1 0
0 2 0
1 2 0
2 2 0
3 2 0
4 2 0
0 3 0
1 3 0
2 3 0
3 3 0
4 3 0
0 4 0
1 4 0
2 4 0
3 4 0
4 4 0

POINT_DATA 25
SCALARS Temperature double 1
LOOKUP_TABLE default
0
0
0
0
250
0
35.7143
93.75
214.286
500
0
49.1071
125
263.393
500
0
35.7143
93.75
214.286
500
0
0
0
0
250
