# vtk DataFile Version 3.0 
vtk output 
ASCII 
DATASET UNSTRUCTURED_GRID 
POINTS 2601 double
0 0 0
0.1 0 0
0.2 0 0
0.3 0 0
0.4 0 0
0.5 0 0
0.6 0 0
0.7 0 0
0.8 0 0
0.9 0 0
1 0 0
1.1 0 0
1.2 0 0
1.3 0 0
1.4 0 0
1.5 0 0
1.6 0 0
1.7 0 0
1.8 0 0
1.9 0 0
2 0 0
2.1 0 0
2.2 0 0
2.3 0 0
2.4 0 0
2.5 0 0
2.6 0 0
2.7 0 0
2.8 0 0
2.9 0 0
3 0 0
3.1 0 0
3.2 0 0
3.3 0 0
3.4 0 0
3.5 0 0
3.6 0 0
3.7 0 0
3.8 0 0
3.9 0 0
4 0 0
4.1 0 0
4.2 0 0
4.3 0 0
4.4 0 0
4.5 0 0
4.6 0 0
4.7 0 0
4.8 0 0
4.9 0 0
5 0 0
0 0.1 0
0.0999984 0.0999985 0
0.199997 0.099997 0
0.299995 0.0999957 0
0.399994 0.0999943 0
0.499993 0.099993 0
0.599991 0.0999918 0
0.69999 0.0999906 0
0.799989 0.0999895 0
0.899988 0.0999885 0
0.999987 0.0999875 0
1.09999 0.0999866 0
1.19998 0.0999857 0
1.29998 0.099985 0
1.39998 0.0999843 0
1.49998 0.0999837 0
1.59998 0.0999832 0
1.69998 0.0999827 0
1.79998 0.0999824 0
1.89998 0.0999821 0
1.99998 0.0999819 0
2.09998 0.0999817 0
2.19998 0.0999817 0
2.29998 0.0999817 0
2.39998 0.0999818 0
2.49998 0.0999819 0
2.59998 0.0999822 0
2.69998 0.0999825 0
2.79998 0.0999828 0
2.89998 0.0999832 0
2.99998 0.0999837 0
3.09998 0.0999843 0
3.19998 0.0999849 0
3.29998 0.0999855 0
3.39999 0.0999862 0
3.49999 0.0999869 0
3.59999 0.0999877 0
3.69999 0.0999884 0
3.79999 0.0999893 0
3.89999 0.0999901 0
3.99999 0.099991 0
4.09999 0.0999919 0
4.19999 0.0999928 0
4.29999 0.0999937 0
4.39999 0.0999946 0
4.5 0.0999955 0
4.6 0.0999964 0
4.7 0.0999974 0
4.8 0.0999983 0
4.9 0.0999991 0
5 0.1 0
0 0.2 0
0.0999969 0.199997 0
0.199994 0.199994 0
0.299991 0.199992 0
0.399988 0.199989 0
0.499986 0.199986 0
0.599983 0.199984 0
0.699981 0.199982 0
0.799979 0.19998 0
0.899976 0.199978 0
0.999974 0.199976 0
1.09997 0.199974 0
1.19997 0.199972 0
1.29997 0.199971 0
1.39997 0.19997 0
1.49997 0.199968 0
1.59997 0.199967 0
1.69996 0.199966 0
1.79996 0.199966 0
1.89996 0.199965 0
1.99996 0.199965 0
2.09996 0.199965 0
2.19996 0.199964 0
2.29996 0.199964 0
2.39996 0.199965 0
2.49996 0.199965 0
2.59996 0.199965 0
2.69996 0.199966 0
2.79996 0.199967 0
2.89997 0.199967 0
2.99997 0.199968 0
3.09997 0.199969 0
3.19997 0.199971 0
3.29997 0.199972 0
3.39997 0.199973 0
3.49997 0.199975 0
3.59997 0.199976 0
3.69998 0.199978 0
3.79998 0.199979 0
3.89998 0.199981 0
3.99998 0.199982 0
4.09998 0.199984 0
4.19999 0.199986 0
4.29999 0.199988 0
4.39999 0.19999 0
4.49999 0.199991 0
4.59999 0.199993 0
4.69999 0.199995 0
4.8 0.199997 0
4.9 0.199998 0
5 0.2 0
0 0.3 0
0.0999954 0.299996 0
0.199991 0.299992 0
0.299987 0.299988 0
0.399983 0.299984 0
0.499979 0.29998 0
0.599975 0.299977 0
0.699972 0.299973 0
0.799968 0.29997 0
0.899965 0.299967 0
0.999962 0.299964 0
1.09996 0.299962 0
1.19996 0.299959 0
1.29995 0.299957 0
1.39995 0.299955 0
1.49995 0.299954 0
1.59995 0.299952 0
1.69995 0.299951 0
1.79995 0.29995 0
1.89995 0.299949 0
1.99995 0.299948 0
2.09995 0.299948 0
2.19994 0.299948 0
2.29994 0.299948 0
2.39995 0.299948 0
2.49995 0.299948 0
2.59995 0.299949 0
2.69995 0.29995 0
2.79995 0.299951 0
2.89995 0.299952 0
2.99995 0.299954 0
3.09995 0.299955 0
3.19995 0.299957 0
3.29996 0.299959 0
3.39996 0.299961 0
3.49996 0.299963 0
3.59996 0.299965 0
3.69997 0.299967 0
3.79997 0.299969 0
3.89997 0.299972 0
3.99997 0.299974 0
4.09998 0.299977 0
4.19998 0.299979 0
4.29998 0.299982 0
4.39998 0.299985 0
4.49999 0.299987 0
4.59999 0.29999 0
4.69999 0.299992 0
4.79999 0.299995 0
4.9 0.299998 0
5 0.3 0
0 0.4 0
0.099994 0.399994 0
0.199988 0.399989 0
0.299983 0.399984 0
0.399978 0.399979 0
0.499973 0.399974 0
0.599968 0.399969 0
0.699963 0.399965 0
0.799959 0.399961 0
0.899955 0.399957 0
0.999951 0.399953 0
1.09995 0.39995 0
1.19994 0.399947 0
1.29994 0.399944 0
1.39994 0.399941 0
1.49994 0.399939 0
1.59993 0.399937 0
1.69993 0.399936 0
1.79993 0.399934 0
1.89993 0.399933 0
1.99993 0.399932 0
2.09993 0.399932 0
2.19993 0.399932 0
2.29993 0.399932 0
2.39993 0.399932 0
2.49993 0.399933 0
2.59993 0.399933 0
2.69993 0.399935 0
2.79993 0.399936 0
2.89993 0.399937 0
2.99994 0.399939 0
3.09994 0.399941 0
3.19994 0.399943 0
3.29994 0.399946 0
3.39995 0.399948 0
3.49995 0.399951 0
3.59995 0.399954 0
3.69995 0.399957 0
3.79996 0.39996 0
3.89996 0.399963 0
3.99996 0.399966 0
4.09997 0.39997 0
4.19997 0.399973 0
4.29998 0.399976 0
4.39998 0.39998 0
4.49998 0.399983 0
4.59999 0.399987 0
4.69999 0.39999 0
4.79999 0.399993 0
4.9 0.399997 0
5 0.4 0
0 0.5 0
0.0999926 0.499993 0
0.199986 0.499986 0
0.299979 0.49998 0
0.399973 0.499974 0
0.499966 0.499967 0
0.59996 0.499962 0
0.699954 0.499956 0
0.799948 0.499951 0
0.899943 0.499946 0
0.999938 0.499942 0
1.09993 0.499937 0
1.19993 0.499934 0
1.29993 0.49993 0
1.39992 0.499927 0
1.49992 0.499924 0
1.59992 0.499922 0
1.69992 0.499919 0
1.79991 0.499918 0
1.89991 0.499916 0
1.99991 0.499915 0
2.09991 0.499915 0
2.19991 0.499915 0
2.29991 0.499915 0
2.39991 0.499915 0
2.49991 0.499916 0
2.59991 0.499917 0
2.69991 0.499918 0
2.79992 0.49992 0
2.89992 0.499922 0
2.99992 0.499924 0
3.09992 0.499927 0
3.19993 0.499929 0
3.29993 0.499932 0
3.39993 0.499936 0
3.49994 0.499939 0
3.59994 0.499942 0
3.69994 0.499946 0
3.79995 0.49995 0
3.89995 0.499954 0
3.99996 0.499958 0
4.09996 0.499962 0
4.19996 0.499966 0
4.29997 0.499971 0
4.39997 0.499975 0
4.49998 0.499979 0
4.59998 0.499983 0
4.69999 0.499988 0
4.79999 0.499992 0
4.9 0.499996 0
5 0.5 0
0 0.6 0
0.0999912 0.599992 0
0.199983 0.599984 0
0.299975 0.599976 0
0.399967 0.599969 0
0.49996 0.599962 0
0.599953 0.599955 0
0.699946 0.599949 0
0.799939 0.599942 0
0.899933 0.599937 0
0.999928 0.599931 0
1.09992 0.599926 0
1.19992 0.599922 0
1.29991 0.599918 0
1.39991 0.599914 0
1.49991 0.599911 0
1.5999 0.599908 0
1.6999 0.599905 0
1.7999 0.599903 0
1.8999 0.599902 0
1.99989 0.5999 0
2.09989 0.5999 0
2.19989 0.599899 0
2.29989 0.599899 0
2.39989 0.5999 0
2.4999 0.599901 0
2.5999 0.599902 0
2.6999 0.599904 0
2.7999 0.599906 0
2.8999 0.599908 0
2.99991 0.599911 0
3.09991 0.599914 0
3.19991 0.599917 0
3.29992 0.59992 0
3.39992 0.599924 0
3.49992 0.599928 0
3.59993 0.599932 0
3.69993 0.599937 0
3.79994 0.599941 0
3.89994 0.599946 0
3.99995 0.599951 0
4.09995 0.599955 0
4.19996 0.59996 0
4.29996 0.599965 0
4.39997 0.59997 0
4.49997 0.599975 0
4.59998 0.59998 0
4.69998 0.599985 0
4.79999 0.59999 0
4.9 0.599995 0
5 0.6 0
0 0.7 0
0.0999899 0.69999 0
0.19998 0.699981 0
0.299971 0.699973 0
0.399962 0.699964 0
0.499954 0.699956 0
0.599946 0.699949 0
0.699938 0.699941 0
0.799931 0.699934 0
0.899924 0.699928 0
0.999917 0.699921 0
1.09991 0.699916 0
1.19991 0.699911 0
1.2999 0.699906 0
1.3999 0.699902 0
1.49989 0.699898 0
1.59989 0.699894 0
1.69989 0.699892 0
1.79988 0.699889 0
1.89988 0.699888 0
1.99988 0.699886 0
2.09988 0.699885 0
2.19988 0.699885 0
2.29988 0.699885 0
2.39988 0.699886 0
2.49988 0.699887 0
2.59988 0.699888 0
2.69988 0.69989 0
2.79989 0.699892 0
2.89989 0.699895 0
2.99989 0.699898 0
3.0999 0.699901 0
3.1999 0.699905 0
3.2999 0.699909 0
3.39991 0.699913 0
3.49991 0.699918 0
3.59992 0.699923 0
3.69992 0.699927 0
3.79993 0.699933 0
3.89993 0.699938 0
3.99994 0.699943 0
4.09995 0.699949 0
4.19995 0.699955 0
4.29996 0.69996 0
4.39996 0.699966 0
4.49997 0.699972 0
4.59998 0.699978 0
4.69998 0.699983 0
4.79999 0.699989 0
4.89999 0.699995 0
5 0.7 0
0 0.8 0
0.0999887 0.799989 0
0.199978 0.799979 0
0.299968 0.79997 0
0.399958 0.79996 0
0.499948 0.799951 0
0.599939 0.799942 0
0.699931 0.799934 0
0.799922 0.799926 0
0.899915 0.799919 0
0.999907 0.799912 0
1.0999 0.799906 0
1.19989 0.7999 0
1.29989 0.799895 0
1.39988 0.79989 0
1.49988 0.799886 0
1.59988 0.799882 0
1.69987 0.799879 0
1.79987 0.799876 0
1.89987 0.799874 0
1.99987 0.799873 0
2.09986 0.799872 0
2.19986 0.799871 0
2.29986 0.799871 0
2.39987 0.799872 0
2.49987 0.799873 0
2.59987 0.799875 0
2.69987 0.799877 0
2.79987 0.799879 0
2.89988 0.799882 0
2.99988 0.799886 0
3.09988 0.79989 0
3.19989 0.799894 0
3.29989 0.799898 0
3.3999 0.799903 0
3.4999 0.799908 0
3.59991 0.799913 0
3.69991 0.799919 0
3.79992 0.799925 0
3.89993 0.799931 0
3.99993 0.799937 0
4.09994 0.799943 0
4.19995 0.799949 0
4.29995 0.799956 0
4.39996 0.799962 0
4.49997 0.799969 0
4.59997 0.799975 0
4.69998 0.799981 0
4.79999 0.799988 0
4.89999 0.799994 0
5 0.8 0
0 0.9 0
0.0999876 0.899988 0
0.199976 0.899977 0
0.299965 0.899966 0
0.399954 0.899956 0
0.499943 0.899946 0
0.599933 0.899937 0
0.699924 0.899928 0
0.799915 0.899919 0
0.899904 0.899909 0
0.999896 0.899902 0
1.09989 0.899895 0
1.19988 0.899888 0
1.29988 0.899882 0
1.39987 0.899877 0
1.49986 0.899872 0
1.59986 0.899868 0
1.69986 0.899864 0
1.79985 0.899861 0
1.89985 0.899859 0
1.99985 0.899857 0
2.09985 0.899856 0
2.19985 0.899856 0
2.29985 0.899856 0
2.39985 0.899857 0
2.49985 0.899858 0
2.59985 0.89986 0
2.69985 0.899862 0
2.79986 0.899865 0
2.89986 0.899868 0
2.99987 0.899872 0
3.09987 0.899876 0
3.19987 0.899881 0
3.29988 0.899886 0
3.39989 0.899891 0
3.49989 0.899897 0
3.5999 0.899903 0
3.6999 0.899909 0
3.79991 0.899916 0
3.89992 0.899922 0
3.99993 0.899929 0
4.09993 0.899936 0
4.19994 0.899943 0
4.29995 0.89995 0
4.39996 0.899958 0
4.49996 0.899965 0
4.59997 0.899972 0
4.69998 0.899979 0
4.79999 0.899986 0
4.89999 0.899993 0
5 0.9 0
0 1 0
0.0999863 0.999987 0
0.199973 0.999975 0
0.299961 0.999963 0
0.399949 0.999952 0
0.499937 0.999941 0
0.599926 0.99993 0
0.699916 0.99992 0
0.799906 0.999911 0
0.899896 0.999902 0
0.999887 0.999893 0
1.09988 0.999886 0
1.19987 0.999878 0
1.29987 0.999872 0
1.39986 0.999866 0
1.49985 0.999861 0
1.59985 0.999857 0
1.69984 0.999853 0
1.79984 0.99985 0
1.89984 0.999847 0
1.99984 0.999845 0
2.09984 0.999844 0
2.19984 0.999844 0
2.29984 0.999844 0
2.39984 0.999845 0
2.49984 0.999846 0
2.59984 0.999848 0
2.69984 0.99985 0
2.79985 0.999854 0
2.89985 0.999857 0
2.99985 0.999861 0
3.09986 0.999866 0
3.19986 0.999871 0
3.29987 0.999876 0
3.39988 0.999882 0
3.49988 0.999888 0
3.59989 0.999895 0
3.6999 0.999901 0
3.7999 0.999908 0
3.89991 0.999916 0
3.99992 0.999923 0
4.09993 0.999931 0
4.19994 0.999938 0
4.29994 0.999946 0
4.39995 0.999954 0
4.49996 0.999962 0
4.59997 0.99997 0
4.69998 0.999977 0
4.79998 0.999985 0
4.89999 0.999993 0
5 1 0
[...]
POINT_DATA 2601
SCALARS Temperature double 1
LOOKUP_TABLE default
0
0
0
0
0
0
0
0
0
0
0
0
0
0
0
0
0
0
0
0
0
0
0
0
0
0
0
0
0
0
0
0
0
0
0
0
0
0
0
0
0
0
0
0
0
0
0
0
0
0
250
0
0.218936
0.438774
0.660424
0.884804
1.11285
1.34551
1.58377
1.82864
2.08117
2.34247
2.61369
2.89605
3.19084
3.49944
3.82333
4.1641
4.52349
4.90338
5.30585
5.73318
6.18791
6.67288
7.19129
7.74677
8.34344
8.98609
9.68023
10.4323
11.25
12.1424
13.1205
14.1976
15.3902
16.7187
18.2091
19.8947
21.8191
24.0403
26.6375
29.7215
33.4524
38.07
43.9502
51.7161
62.4749
78.3731
104.036
150.732
249.778
500
0
0.436968
0.875737
1.31812
1.76595
2.22108
2.68542
3.16092
3.64961
4.15359
4.67503
5.21625
5.77967
6.36787
6.98359
7.62977
8.30959
9.02648
9.7842
10.5868
11.439
12.3456
13.3123
14.3455
15.4523
16.6409
17.9207
19.3025
20.7991
22.4254
24.1993
26.1421
28.2799
30.6445
33.2756
36.2231
39.5507
43.3414
47.7047
52.7882
58.7963
66.0183
74.8776
86.015
100.44
119.811
146.983
187.039
249.118
348.384
500
0
0.653199
1.30909
1.97037
2.63978
3.3201
4.01416
4.7249
5.45531
6.20852
6.98782
7.79662
8.63853
9.51739
10.4373
11.4026
12.418
13.4887
14.6201
15.8184
17.0903
18.4432
19.8854
21.4262
23.0762
24.8473
26.7533
28.8101
31.0361
33.4532
36.0872
38.9687
42.1353
45.6323
49.5161
53.8569
58.7439
64.2914
70.6489
78.0147
86.6573
96.9473
109.408
124.793
144.217
169.349
202.709
248.021
310.319
394.642
500
0
0.86674
1.73704
2.61449
3.50271
4.40537
5.32625
6.26919
7.23819
8.23739
9.27111
10.3439
11.4604
12.6259
13.8456
15.1253
16.4712
17.8901
19.3891
20.9764
22.6606
24.4515
26.3598
28.3977
30.5789
32.9188
35.4352
38.1484
41.0822
44.2643
47.7275
51.5105
55.6604
60.2336
65.2998
70.9448
77.2766
84.4315
92.5849
101.965
112.871
125.706
141.013
159.533
182.286
210.658
246.486
292.017
349.499
419.867
500
0
1.07672
2.15785
3.24785
4.35119
5.47244
6.61626
7.78743
8.99089
10.2318
11.5154
12.8473
14.2335
15.6801
17.1939
18.7818
20.4515
22.2113
24.07
26.0374
28.1243
30.3423
32.7047
35.2261
37.923
40.8139
43.9202
47.2662
50.8801
54.7945
59.0479
63.6857
68.7621
74.3421
80.5046
87.3463
94.9864
103.574
113.295
124.388
137.157
151.994
169.405
190.043
214.737
244.514
280.561
324.063
375.795
435.327
500
0
1.28228
2.5698
3.86786
5.18176
6.51694
7.87892
9.27338
10.7062
12.1834
13.7113
15.2965
16.9461
18.6673
20.468
22.3565
24.3419
26.4336
28.6422
30.9791
33.4568
36.0889
38.8907
41.8791
45.073
48.4938
52.1657
56.1163
60.3774
64.9858
69.9841
75.4225
81.3604
87.8683
95.0306
102.95
111.749
121.582
132.633
145.136
159.376
175.709
194.572
216.495
242.106
272.102
307.181
347.881
394.29
445.648
500
0
1.48259
2.97123
4.472
5.99106
7.53464
9.10911
10.721
12.3771
14.0843
15.8499
17.6815
19.587
21.575
23.6543
25.8345
28.1258
30.539
33.0862
35.7801
38.6348
41.6658
44.8901
48.3265
51.9962
55.9226
60.1325
64.656
69.5277
74.7872
80.4802
86.6601
93.3889
100.74
108.8
117.672
127.48
138.37
150.522
164.147
179.503
196.895
216.678
239.262
265.09
294.606
328.181
365.99
407.838
452.976
500
0
1.67685
3.36052
5.05787
6.77583
8.52144
10.3019
12.1245
13.9968
15.9268
17.9225
19.9924
22.1456
24.3914
26.7398
29.2014
31.7877
34.5106
37.3834
40.4203
43.6367
47.0496
50.6774
54.5409
58.6626
63.0681
67.7857
72.8477
78.2904
84.1552
90.4898
97.3487
104.795
112.903
121.758
131.46
142.128
153.899
166.936
181.428
197.595
215.688
235.985
258.786
284.388
313.053
344.948
380.059
418.098
458.417
500
0
1.86428
3.73612
5.62312
7.53296
9.47342
11.4524
13.4782
15.559
17.7035
19.9208
22.2202
24.6115
27.1052
29.7121
32.4438
35.3128
38.3323
41.5166
44.881
48.4422
52.2183
56.2293
60.497
65.0454
69.9014
75.0947
80.6587
86.6309
93.0537
99.9751
107.45
115.541
124.32
133.869
144.283
155.672
168.162
181.895
197.035
213.763
232.278
252.789
275.508
300.623
328.271
358.499
391.202
426.078
462.595
500
0
2.04415
4.09656
6.16554
8.25946
10.3868
12.5563
14.7768
17.0574
19.4075
21.837
24.356
26.9751
29.7057
32.5595
35.549
38.6876
41.9894
45.4697
49.1449
53.0327
57.1523
61.5245
66.1724
71.1208
76.3976
82.0332
88.0617
94.5211
101.454
108.907
116.935
125.599
134.966
145.114
156.132
168.117
181.181
195.448
211.053
228.143
246.871
267.388
289.835
314.324
340.912
369.574
400.17
432.419
465.885
500
0
2.21576
4.44043
6.683
8.95251
11.2581
13.6092
16.0153
18.4863
21.0322
23.6637
26.3916
29.2274
32.183
35.2712
38.5051
41.899
45.4679
49.228
53.1963
57.3915
61.8336
66.5443
71.5472
76.868
82.5349
88.5789
95.0341
101.938
109.333
117.265
125.786
134.953
144.831
155.491
167.012
179.483
192.999
207.664
223.588
240.887
259.674
280.056
302.121
325.926
351.478
378.716
407.487
437.543
468.527
500
0
2.37844
4.76642
7.17352
9.60943
12.0839
14.6071
17.189
19.8401
22.5714
25.3939
28.3193
31.3598
34.5279
37.8371
41.3013
44.9355
48.7554
52.7779
57.0208
61.5035
66.2464
71.272
76.6042
82.2692
88.2953
94.7135
101.558
108.865
116.675
125.034
133.99
143.597
153.914
165.006
176.944
189.804
203.667
218.619
234.749
252.143
270.883
291.042
312.668
335.782
360.36
386.323
413.522
441.737
470.679
500
0
2.53157
5.07326
7.63523
10.2277
12.8612
15.5461
18.2933
21.1139
24.0193
27.0213
30.1321
33.3644
36.7317
40.2479
43.9275
47.7863
51.8404
56.1074
60.6058
65.3551
70.3767
75.693
81.3285
87.3093
93.6637
100.422
107.618
115.288
123.469
132.206
141.543
151.53
162.222
173.677
185.955
199.122
213.247
228.399
244.645
262.052
280.675
300.56
321.728
344.175
367.859
392.693
418.539
445.206
472.453
500
0
2.67459
5.35982
8.0664
10.8051
13.5869
16.4228
19.3243
22.3029
25.3706
28.5398
31.8232
35.2342
38.7867
42.4951
46.3748
50.4416
54.7126
59.2057
63.9396
68.9347
74.2122
79.795
85.7075
91.9759
98.628
105.694
113.206
121.199
129.709
138.777
148.446
158.76
169.769
181.523
194.076
207.484
221.801
237.083
253.382
270.744
289.207
308.794
329.509
351.33
374.207
398.052
422.736
448.095
473.926
500
0
2.80695
5.62503
8.46543
11.3394
14.2584
17.234
20.2781
23.4028
26.6204
29.944
33.3868
36.9625
40.6857
44.5712
48.6347
52.8929
57.3629
62.063
67.0125
72.2318
77.7424
83.5673
89.7308
96.2587
103.179
110.52
118.313
126.592
135.391
144.748
154.703
165.295
176.57
188.571
201.344
214.935
229.39
244.75
261.055
278.336
296.616
315.901
336.183
357.431
379.589
402.57
426.259
450.512
475.155
500
0
2.92817
5.86791
8.83086
11.8287
14.8733
17.9768
21.1513
24.4096
27.7644
31.229
34.8173
38.5435
42.4223
46.4691
50.7002
55.1322
59.783
64.6709
69.8156
75.2375
80.9584
87.0011
93.3897
100.15
107.308
114.893
122.935
131.464
140.516
150.122
160.321
171.149
182.645
194.847
207.794
221.524
236.073
251.474
267.753
284.931
303.018
322.011
341.892
362.623
384.147
406.381
429.22
452.537
476.184
500
0
3.03781
6.08759
9.16136
12.2712
15.4294
18.6484
21.9409
25.3198
28.7984
32.3904
36.11
39.9717
43.9908
48.1829
52.5646
57.1529
61.9658
67.0221
72.3414
77.9444
83.8527
90.0891
96.6773
103.642
111.011
118.81
127.068
135.816
145.084
154.905
165.311
176.336
188.014
200.378
213.461
227.294
241.905
257.319
273.552
290.617
308.514
327.233
346.75
367.023
387.994
409.586
431.703
454.232
477.044
500
0
3.13548
6.28327
9.45575
12.6654
15.9247
19.2466
22.644
26.1302
29.719
33.4243
37.2605
41.2427
45.3862
49.7072
54.2223
58.949
63.9054
69.1103
74.5836
80.346
86.419
92.8251
99.588
106.732
114.283
122.268
130.713
139.647
149.101
159.102
169.682
180.87
192.696
205.19
218.379
232.287
246.936
262.343
278.521
295.471
313.189
331.659
350.852
370.725
391.221
412.267
433.775
455.643
477.759
500
0
3.22083
6.45427
9.71299
13.0097
16.3574
19.7692
23.2582
26.8382
30.5231
34.3271
38.2651
42.3522
46.6041
51.0373
55.6685
60.5154
65.5963
70.9301
76.5368
82.437
88.6521
95.2045
102.117
109.415
117.122
125.264
133.868
142.96
152.569
162.721
173.444
184.766
196.712
209.308
222.576
236.538
251.208
266.599
282.716
299.557
317.112
335.362
354.273
373.804
393.898
414.486
435.486
456.808
478.348
500
0
3.29355
6.59997
9.93218
13.3032
16.7261
20.2144
23.7815
27.4412
31.2079
35.096
39.1205
43.2968
47.6409
52.1693
56.899
61.8478
67.0342
72.4771
78.1965
84.213
90.5479
97.2234
104.262
111.688
119.526
127.8
136.535
145.758
155.494
165.769
176.608
188.037
200.078
212.753
226.082
240.08
254.76
270.129
286.187
302.93
320.342
338.402
357.076
376.32
396.081
416.292
436.877
457.753
478.826
500
0
3.3534
6.71988
10.1126
13.5447
17.0295
20.5807
24.212
27.9374
31.7713
35.7285
39.8241
44.0736
48.4934
53.0999
57.9104
62.9427
68.2154
73.7476
79.5592
85.6706
92.1032
98.8789
106.02
113.55
121.493
129.873
138.714
148.041
157.879
168.252
179.183
190.695
202.81
215.545
228.918
242.941
257.623
272.968
288.974
305.632
322.925
340.828
359.308
378.321
397.813
417.723
437.978
458.501
479.204
500
0
3.40017
6.81358
10.2535
13.7333
17.2666
20.8669
24.5484
28.325
32.2114
36.2225
40.3736
44.6803
49.159
53.8264
58.6999
63.7973
69.1372
74.7388
80.6219
86.8071
93.3154
100.169
107.389
115
123.024
131.485
140.408
149.815
159.73
170.177
181.177
192.752
204.921
217.7
231.104
245.143
259.824
275.148
291.11
307.699
324.898
342.679
361.008
379.842
399.129
418.809
438.813
459.067
479.49
500
0
3.4337
6.88075
10.3546
13.8686
17.4365
21.0721
24.7894
28.6028
32.5268
36.5766
40.7673
45.115
49.6359
54.3469
59.2654
64.4093
69.7972
75.4484
81.3826
87.6204
94.1827
101.091
108.368
116.036
124.118
132.637
141.617
151.08
161.05
171.549
182.597
194.215
206.421
219.23
232.655
246.704
261.382
276.689
292.618
309.157
326.287
343.981
362.203
380.91
400.052
419.57
439.397
459.463
479.691
500
0
3.45387
6.92115
10.4153
13.95
17.5387
21.1955
24.9345
28.7699
32.7166
36.7895
41.0042
45.3764
49.9227
54.6599
59.6054
64.7772
70.194
75.8749
81.8398
88.1091
94.7037
101.645
108.956
116.658
124.774
133.328
142.342
151.839
161.841
172.37
183.447
195.091
207.319
220.145
233.581
247.635
262.311
277.607
293.516
310.025
327.114
344.755
362.912
381.544
400.599
420.021
439.744
459.698
479.809
500
0
3.46061
6.93466
10.4356
13.9771
17.5729
21.2368
24.9829
28.8258
32.78
36.8607
41.0833
45.4638
50.0186
54.7645
59.719
64.9002
70.3266
76.0175
81.9926
88.2724
94.8778
101.83
109.152
116.866
124.993
133.559
142.584
152.092
162.105
172.644
183.731
195.383
207.618
220.45
233.89
247.946
262.621
277.913
293.815
310.314
327.389
345.012
363.148
381.754
400.781
420.17
439.858
459.776
479.849
500
0
3.4539
6.92121
10.4154
13.9501
17.5389
21.1957
24.9347
28.7702
32.7169
36.7899
41.0046
45.3769
49.9232
54.6605
59.606
64.7779
70.1947
75.8757
81.8407
88.11
94.7047
101.646
108.957
116.659
124.775
133.329
142.343
151.84
161.842
172.372
183.449
195.093
207.32
220.146
233.583
247.637
262.313
277.609
293.518
310.027
327.115
344.756
362.913
381.545
400.6
420.021
439.744
459.698
479.809
500
0
3.43376
6.88087
10.3547
13.8688
17.4368
21.0725
24.7899
28.6034
32.5275
36.5773
40.7681
45.1159
49.6369
54.348
59.2666
64.4106
69.7987
75.45
81.3843
87.6222
94.1846
101.093
108.37
116.038
124.12
132.639
141.619
151.083
161.053
171.551
182.6
194.218
206.424
219.233
232.658
246.707
261.385
276.691
292.621
309.16
326.29
343.983
362.205
380.912
400.053
419.571
439.398
459.464
479.691
500
0
3.40026
6.81376
10.2538
13.7337
17.2671
20.8675
24.5491
28.3258
32.2124
36.2236
40.3748
44.6817
49.1605
53.8281
58.7017
63.7993
69.1394
74.7411
80.6244
86.8098
93.3183
100.172
107.392
115.003
123.028
131.489
140.412
149.819
159.734
170.181
181.182
192.757
204.925
217.704
231.108
245.147
259.828
275.152
291.114
307.703
324.901
342.682
361.011
379.844
399.131
418.81
438.814
459.068
479.491
500
0
3.35352
6.72012
10.1129
13.5452
17.0302
20.5815
24.2129
27.9385
31.7725
35.7299
39.8256
44.0754
48.4953
53.102
57.9128
62.9453
68.2183
73.7507
79.5625
85.6742
92.107
98.8829
106.024
113.555
121.498
129.878
138.719
148.047
157.885
168.258
179.189
190.701
202.816
215.551
228.924
242.947
257.629
272.974
288.979
305.637
322.929
340.833
359.312
378.324
397.816
417.725
437.98
458.502
479.205
500
0
3.2937
6.60026
9.93262
13.3038
16.7269
20.2153
23.7826
27.4426
31.2094
35.0977
39.1224
43.299
47.6433
52.1719
56.9019
61.851
67.0376
72.4809
78.2006
84.2173
90.5525
97.2283
104.268
111.694
119.532
127.806
136.541
145.764
155.5
165.775
176.615
188.044
200.085
212.76
226.089
240.087
254.767
270.135
286.193
302.936
320.348
338.407
357.081
376.324
396.084
416.294
436.879
457.754
478.827
500
0
3.22099
6.45461
9.71351
13.0104
16.3583
19.7702
23.2595
26.8397
30.5248
34.3291
38.2673
42.3547
46.607
51.0404
55.6719
60.5191
65.6003
70.9345
76.5415
82.442
88.6575
95.2103
102.124
109.421
117.129
125.271
133.875
142.968
152.577
162.729
173.452
184.774
196.72
209.316
222.585
236.546
251.216
266.607
282.723
299.564
317.119
335.368
354.279
373.809
393.902
414.489
435.489
456.809
478.349
500
0
3.13567
6.28366
9.45633
12.6661
15.9257
19.2478
22.6455
26.132
29.721
33.4265
37.2631
41.2455
45.3894
49.7107
54.2262
58.9532
63.9099
69.1153
74.589
80.3517
86.4251
92.8317
99.5949
106.739
114.291
122.276
130.721
139.656
149.11
159.111
169.691
180.879
192.706
205.2
218.388
232.296
246.945
262.353
278.529
295.479
313.197
331.666
350.858
370.73
391.226
412.271
433.778
455.645
477.76
500
0
3.03802
6.08801
9.162
12.2721
15.4305
18.6498
21.9425
25.3217
28.8006
32.3929
36.1128
39.9749
43.9943
48.1868
52.5688
57.1575
61.9709
67.0276
72.3473
77.9507
83.8595
90.0963
96.6849
103.651
111.019
118.819
127.078
135.826
145.094
154.915
165.321
176.347
188.025
200.389
213.472
227.305
241.916
257.329
273.562
290.627
308.523
327.242
346.757
367.029
388
409.591
431.707
454.234
477.045
500
0
2.92839
5.86837
8.83154
11.8296
14.8745
17.9782
21.1531
24.4116
27.7667
31.2317
34.8203
38.5468
42.426
46.4733
50.7047
55.1372
59.7884
64.6768
69.8219
75.2444
80.9657
87.0089
93.398
100.158
107.317
114.903
122.945
131.475
140.526
150.134
160.333
171.161
182.657
194.859
207.806
221.536
236.085
251.485
267.764
284.942
303.028
322.02
341.9
362.63
384.153
406.386
429.224
452.539
476.185
500
0
2.80718
5.62551
8.46616
11.3404
14.2597
17.2356
20.2799
23.4049
26.6229
29.9468
33.39
36.9661
40.6896
44.5756
48.6396
52.8981
57.3686
62.0692
67.0192
72.239
77.7502
83.5756
89.7396
96.268
103.188
110.53
118.324
126.603
135.403
144.76
154.715
165.308
176.583
188.584
201.357
214.949
229.403
244.763
261.068
278.348
296.627
315.911
336.192
357.439
379.596
402.576
426.264
450.514
475.157
500
0
2.67483
5.36032
8.06715
10.8061
13.5882
16.4244
19.3262
22.3051
25.3732
28.5427
31.8265
35.2379
38.7908
42.4997
46.3798
50.4471
54.7186
59.2121
63.9466
68.9422
74.2202
79.8036
85.7167
91.9855
98.6382
105.705
113.217
121.21
129.721
138.79
148.459
158.773
169.783
181.537
194.09
207.498
221.815
237.096
253.395
270.757
289.219
308.805
329.519
351.339
374.215
398.058
422.741
448.098
473.927
500
0
2.53182
5.07377
7.636
10.2288
12.8625
15.5477
18.2952
21.1162
24.0219
27.0242
30.1354
33.3682
36.7359
40.2525
43.9327
47.7919
51.8466
56.1141
60.6129
65.3628
70.3849
75.7018
81.3379
87.3192
93.6742
100.433
107.63
115.3
123.482
132.219
141.556
151.544
162.237
173.691
185.97
199.137
213.262
228.413
244.659
262.065
280.688
300.572
321.739
344.185
367.867
392.7
418.544
445.209
472.454
500
0
2.37869
4.76692
7.17429
9.61047
12.0853
14.6087
17.1909
19.8424
22.574
25.3969
28.3227
31.3636
34.5321
37.8417
41.3065
44.9411
48.7616
52.7846
57.0281
61.5112
66.2547
71.2809
76.6137
82.2792
88.3059
94.7247
101.569
108.877
116.688
125.047
134.004
143.611
153.929
165.021
176.96
189.82
203.683
218.635
234.764
252.157
270.897
291.055
312.68
335.793
360.37
386.33
413.527
441.741
470.681
500
0
2.216
4.44093
6.68376
8.95353
11.2594
13.6108
16.0172
18.4885
21.0348
23.6666
26.3949
29.2311
32.1872
35.2758
38.5102
41.9046
45.474
49.2346
53.2034
57.3992
61.8419
66.5532
71.5566
76.878
82.5455
88.5901
95.0459
101.951
109.346
117.278
125.8
134.967
144.846
155.506
167.028
179.499
193.015
207.679
223.604
240.902
259.689
280.07
302.134
325.938
351.488
378.724
407.494
437.547
468.529
500
0
2.04439
4.09705
6.16627
8.26046
10.3881
12.5579
14.7787
17.0596
19.41
21.8399
24.3592
26.9788
29.7098
32.564
35.554
38.693
41.9953
45.4761
49.1519
53.0402
57.1604
61.5332
66.1816
71.1306
76.408
82.0442
88.0734
94.5333
101.466
108.921
116.949
125.613
134.981
145.129
156.147
168.133
181.197
195.464
211.069
228.159
246.886
267.402
289.849
314.336
340.922
369.583
400.177
432.424
465.888
500
0
1.86451
3.73658
5.62382
7.53391
9.47463
11.4539
13.4799
15.5611
17.7059
19.9235
22.2233
24.615
27.1091
29.7164
32.4486
35.318
38.338
41.5228
44.8877
48.4494
52.2261
56.2376
60.5058
65.0549
69.9115
75.1054
80.67
86.6427
93.0661
99.9881
107.463
115.555
124.334
133.884
144.299
155.688
168.178
181.911
197.051
213.779
232.293
252.804
275.522
300.635
328.283
358.508
391.209
426.083
462.598
500
0
1.67706
3.36095
5.05853
6.77672
8.52257
10.3033
12.1261
13.9988
15.929
17.925
19.9953
22.1489
24.395
26.7438
29.2059
31.7925
34.5159
37.3892
40.4266
43.6435
47.0568
50.6853
54.5492
58.6715
63.0775
67.7958
72.8583
78.3016
84.167
90.5022
97.3617
104.809
112.917
121.773
131.475
142.143
153.915
166.952
181.444
197.611
215.704
236
258.8
284.401
313.065
344.958
380.067
418.104
458.42
500
0
1.48278
2.97162
4.4726
5.99187
7.53567
9.11038
10.7225
12.3788
14.0863
15.8522
17.6841
19.59
21.5784
23.658
25.8386
28.1302
30.5439
33.0915
35.7859
38.6411
41.6725
44.8973
48.3342
52.0044
55.9313
60.1418
64.6659
69.5381
74.7982
80.4918
86.6721
93.4016
100.753
108.814
117.687
127.494
138.385
150.537
164.163
179.519
196.91
216.693
239.277
265.104
294.618
328.191
365.998
407.844
452.979
500
0
1.28245
2.57016
3.86839
5.18249
6.51787
7.88006
9.27474
10.7078
12.1852
13.7134
15.2989
16.9488
18.6703
20.4713
22.3602
24.3458
26.438
28.647
30.9843
33.4623
36.0949
38.8971
41.8859
45.0803
48.5016
52.174
56.1252
60.3868
64.9957
69.9945
75.4335
81.3719
87.8802
95.0431
102.963
111.763
121.595
132.648
145.151
159.391
175.724
194.587
216.51
242.119
272.114
307.191
347.889
394.296
445.651
500
0
1.07687
2.15816
3.24831
4.35181
5.47324
6.61724
7.7886
8.99225
10.2333
11.5172
12.8494
14.2358
15.6827
17.1967
18.7849
20.455
22.2151
24.0741
26.0419
28.1291
30.3475
32.7103
35.2321
37.9293
40.8207
43.9275
47.2739
50.8882
54.8031
59.057
63.6953
68.7722
74.3526
80.5157
87.3578
94.9983
103.586
113.308
124.401
137.171
152.008
169.419
190.056
214.75
244.526
280.571
324.072
375.801
435.331
500
0
0.866864
1.73729
2.61487
3.50322
4.40603
5.32705
6.27015
7.23932
8.23869
9.27259
10.3455
11.4623
12.628
13.8479
15.1279
16.4741
17.8932
19.3925
20.98
22.6645
24.4557
26.3644
28.4027
30.5842
32.9244
35.4411
38.1548
41.0889
44.2715
47.735
51.5185
55.6687
60.2424
65.309
70.9545
77.2867
84.4421
92.5959
101.976
112.883
125.718
141.025
159.546
182.298
210.67
246.496
292.026
349.506
419.87
500
0
0.653294
1.30928
1.97066
2.64017
3.3206
4.01478
4.72563
5.45617
6.20952
6.98896
7.7979
8.63997
9.519
10.4391
11.4046
12.4202
13.491
14.6227
15.8212
17.0933
18.4464
19.8889
21.43
23.0802
24.8516
26.7579
28.815
31.0413
33.4587
36.093
38.9749
42.1418
45.6392
49.5233
53.8645
58.7518
64.2997
70.6575
78.0237
86.6667
96.957
109.418
124.803
144.227
169.359
202.719
248.029
310.326
394.646
500
0
0.437032
0.875866
1.31832
1.76621
2.22142
2.68583
3.16142
3.65019
4.15426
4.6758
5.21712
5.78065
6.36896
6.9848
7.63111
8.31105
9.02808
9.78594
10.5887
11.441
12.3478
13.3147
14.3481
15.4551
16.6439
17.9238
19.3058
20.8026
22.4291
24.2032
26.1463
28.2843
30.6491
33.2805
36.2282
39.5562
43.3471
47.7107
52.7945
58.8029
66.0252
74.8847
86.0223
100.447
119.819
146.99
187.046
249.124
348.388
500
0
0.218968
0.438839
0.660523
0.884938
1.11302
1.34572
1.58402
1.82893
2.08151
2.34286
2.61413
2.89654
3.19139
3.50005
3.824
4.16484
4.5243
4.90426
5.30681
5.73422
6.18903
6.67409
7.19259
7.74815
8.34492
8.98767
9.68191
10.4341
11.2519
12.1445
13.1227
14.1999
15.3926
16.7212
18.2117
19.8975
21.822
24.0434
26.6407
29.7249
33.456
38.0737
43.9541
51.7201
62.4792
78.3775
104.04
150.736
249.781
500
0
0
0
0
0
0
0
0
0
0
0
0
0
0
0
0
0
0
0
0
0
0
0
0
0
0
0
0
0
0
0
0
0
0
0
0
0
0
0
0
0
0
0
0
0
0
0
0
0
0
250
