# vtk DataFile Version 3.0
ParaView Output
ASCII
DATASET STRUCTURED_GRID
DIMENSIONS 3 3 3
POINTS 27 double
0 0 0
0.5 0 0
1 0 0
0 0.5 0
0.5 0.5 0
1 0.5 0
0 1 0
0.5 1 0
1 1 0
0 0 0.5
0.5 0 0.5
1 0 0.5
0 0.5 0.5
0 0 0
1 0.5 0.5
0 1 0.5
0.5 1 0.5
1 1 0.5
0 0 1
0.5 0 1
1 0 1
0 0.5 1
0.5 0.5 1
1 0.5 1
0 1 1
0.5 1 1
1 1 1

POINT_DATA 27
SCALARS Temperature double
LOOKUP_TABLE default
130
250
125
260
500
250
130
250
125
10
0
0
20
0
0
10
0
0
30
50
25
60
100
50
30
50
25
