# vtk DataFile Version 3.0
ParaView Output
ASCII
DATASET STRUCTURED_GRID
DIMENSIONS 5 5 1
POINTS 25 double
0 0 0
1 0 0
2 0 0
3 0 0
4 0 0
0 1 0
-6.5602 -3.98868 0
-1.37624 -6.93131 0
5.56517 -3.98868 0
4 1 0
0 2 0
-12.7446 -2.00558 0
-5.77372 -5.77372 0
8.73339 -2.00558 0
4 2 0
0 3 0
-6.5602 2.99365 0
-1.37624 4.17883 0
5.56517 2.99365 0
4 3 0
0 4 0
1 4 0
2 4 0
3 4 0
4 4 0

POINT_DATA 25
SCALARS Temperature double
LOOKUP_TABLE default
60
100
100
100
50
20
-nan
-nan
-nan
0
20
-nan
-nan
-nan
0
20
-nan
-nan
-nan
0
60
100
100
100
50
